 Entering Gaussian System, Link 0=g09
 Initial command:
 /opt/g09d01/g09/l1.exe "/tmp/Gau-21281.inp" -scrdir="/tmp/"
 Entering Link 1 = /opt/g09d01/g09/l1.exe PID=     21282.
  
 Copyright (c) 1988,1990,1992,1993,1995,1998,2003,2009,2013,
            Gaussian, Inc.  All Rights Reserved.
  
 This is part of the Gaussian(R) 09 program.  It is based on
 the Gaussian(R) 03 system (copyright 2003, Gaussian, Inc.),
 the Gaussian(R) 98 system (copyright 1998, Gaussian, Inc.),
 the Gaussian(R) 94 system (copyright 1995, Gaussian, Inc.),
 the Gaussian 92(TM) system (copyright 1992, Gaussian, Inc.),
 the Gaussian 90(TM) system (copyright 1990, Gaussian, Inc.),
 the Gaussian 88(TM) system (copyright 1988, Gaussian, Inc.),
 the Gaussian 86(TM) system (copyright 1986, Carnegie Mellon
 University), and the Gaussian 82(TM) system (copyright 1983,
 Carnegie Mellon University). Gaussian is a federally registered
 trademark of Gaussian, Inc.
  
 This software contains proprietary and confidential information,
 including trade secrets, belonging to Gaussian, Inc.
  
 This software is provided under written license and may be
 used, copied, transmitted, or stored only in accord with that
 written license.
  
 The following legend is applicable only to US Government
 contracts under FAR:
  
                    RESTRICTED RIGHTS LEGEND
  
 Use, reproduction and disclosure by the US Government is
 subject to restrictions as set forth in subparagraphs (a)
 and (c) of the Commercial Computer Software - Restricted
 Rights clause in FAR 52.227-19.
  
 Gaussian, Inc.
 340 Quinnipiac St., Bldg. 40, Wallingford CT 06492
  
  
 ---------------------------------------------------------------
 Warning -- This program may not be used in any manner that
 competes with the business of Gaussian, Inc. or will provide
 assistance to any competitor of Gaussian, Inc.  The licensee
 of this program is prohibited from giving any competitor of
 Gaussian, Inc. access to this program.  By using this program,
 the user acknowledges that Gaussian, Inc. is engaged in the
 business of creating and licensing software in the field of
 computational chemistry and represents and warrants to the
 licensee that it is not a competitor of Gaussian, Inc. and that
 it will not use this program in any manner prohibited above.
 ---------------------------------------------------------------
  

 Cite this work as:
 Gaussian 09, Revision D.01,
 M. J. Frisch, G. W. Trucks, H. B. Schlegel, G. E. Scuseria, 
 M. A. Robb, J. R. Cheeseman, G. Scalmani, V. Barone, B. Mennucci, 
 G. A. Petersson, H. Nakatsuji, M. Caricato, X. Li, H. P. Hratchian, 
 A. F. Izmaylov, J. Bloino, G. Zheng, J. L. Sonnenberg, M. Hada, 
 M. Ehara, K. Toyota, R. Fukuda, J. Hasegawa, M. Ishida, T. Nakajima, 
 Y. Honda, O. Kitao, H. Nakai, T. Vreven, J. A. Montgomery, Jr., 
 J. E. Peralta, F. Ogliaro, M. Bearpark, J. J. Heyd, E. Brothers, 
 K. N. Kudin, V. N. Staroverov, T. Keith, R. Kobayashi, J. Normand, 
 K. Raghavachari, A. Rendell, J. C. Burant, S. S. Iyengar, J. Tomasi, 
 M. Cossi, N. Rega, J. M. Millam, M. Klene, J. E. Knox, J. B. Cross, 
 V. Bakken, C. Adamo, J. Jaramillo, R. Gomperts, R. E. Stratmann, 
 O. Yazyev, A. J. Austin, R. Cammi, C. Pomelli, J. W. Ochterski, 
 R. L. Martin, K. Morokuma, V. G. Zakrzewski, G. A. Voth, 
 P. Salvador, J. J. Dannenberg, S. Dapprich, A. D. Daniels, 
 O. Farkas, J. B. Foresman, J. V. Ortiz, J. Cioslowski, 
 and D. J. Fox, Gaussian, Inc., Wallingford CT, 2013.
 
 ******************************************
 Gaussian 09:  EM64L-G09RevD.01 24-Apr-2013
                17-Dec-2015 
 ******************************************
 %nprocshared=4
 Will use up to    4 processors via shared memory.
 %mem=10GB
 %chk=S0_opt_hf_6-31gd
 ---------------------------------------------------
 # CIS(D,NStates=200)/6-31g(d) Geom=Check Guess=Read
 ---------------------------------------------------
 1/29=2,38=1/1;
 2/12=2,40=1/2;
 3/5=1,6=6,7=1,11=9,14=-4,16=1,25=1,30=1,116=-2/1,2,8,3;
 4/5=1/1;
 5/5=2,38=6/2;
 8/6=1,10=2,108=200/1,4;
 9/23=4,41=200,42=3/14;
 6/7=2,8=2,9=2,10=2/1;
 99/5=1,9=1/99;
 ----------------------------------------------------------------------
 Acetone: Transition electronic dipole moments between S0 and excited s
 tates
 ----------------------------------------------------------------------
 Structure from the checkpoint file:  "S0_opt_hf_6-31gd.chk"
 Charge =  0 Multiplicity = 1
 Redundant internal coordinates found in file.
 O,0,0.,0.,1.3724727102
 C,0,0.,0.,0.18034784
 C,0,0.,1.2884173882,-0.6144986683
 C,0,0.,-1.2884173882,-0.6144986683
 H,0,0.,2.1337810533,0.0594058568
 H,0,-0.8744076012,1.3359568005,-1.2572787317
 H,0,0.8744076012,1.3359568005,-1.2572787317
 H,0,0.,-2.1337810533,0.0594058568
 H,0,-0.8744076012,-1.3359568005,-1.2572787317
 H,0,0.8744076012,-1.3359568005,-1.2572787317
 Recover connectivity data from disk.
                          Input orientation:                          
 ---------------------------------------------------------------------
 Center     Atomic      Atomic             Coordinates (Angstroms)
 Number     Number       Type             X           Y           Z
 ---------------------------------------------------------------------
      1          8           0        0.000000    0.000000    1.372473
      2          6           0        0.000000    0.000000    0.180348
      3          6           0        0.000000    1.288417   -0.614499
      4          6           0        0.000000   -1.288417   -0.614499
      5          1           0        0.000000    2.133781    0.059406
      6          1           0       -0.874408    1.335957   -1.257279
      7          1           0        0.874408    1.335957   -1.257279
      8          1           0        0.000000   -2.133781    0.059406
      9          1           0       -0.874408   -1.335957   -1.257279
     10          1           0        0.874408   -1.335957   -1.257279
 ---------------------------------------------------------------------
                    Distance matrix (angstroms):
                    1          2          3          4          5
     1  O    0.000000
     2  C    1.192125   0.000000
     3  C    2.368137   1.513869   0.000000
     4  C    2.368137   1.513869   2.576835   0.000000
     5  H    2.505427   2.137206   1.081105   3.487921   0.000000
     6  H    3.076518   2.148520   1.086285   2.839911   1.770528
     7  H    3.076518   2.148520   1.086285   2.839911   1.770528
     8  H    2.505427   2.137206   3.487921   1.081105   4.267562
     9  H    3.076518   2.148520   2.839911   1.086285   3.812785
    10  H    3.076518   2.148520   2.839911   1.086285   3.812785
                    6          7          8          9         10
     6  H    0.000000
     7  H    1.748815   0.000000
     8  H    3.812785   3.812785   0.000000
     9  H    2.671914   3.193349   1.770528   0.000000
    10  H    3.193349   2.671914   1.770528   1.748815   0.000000
 Stoichiometry    C3H6O
 Framework group  C2V[C2(CO),SGV(C2H2),X(H4)]
 Deg. of freedom     8
 Full point group                 C2V     NOp   4
 Largest Abelian subgroup         C2V     NOp   4
 Largest concise Abelian subgroup C2V     NOp   4
                         Standard orientation:                         
 ---------------------------------------------------------------------
 Center     Atomic      Atomic             Coordinates (Angstroms)
 Number     Number       Type             X           Y           Z
 ---------------------------------------------------------------------
      1          8           0        0.000000    0.000000    1.379423
      2          6           0        0.000000    0.000000    0.187298
      3          6           0        0.000000    1.288417   -0.607548
      4          6           0        0.000000   -1.288417   -0.607548
      5          1           0        0.000000    2.133781    0.066356
      6          1           0       -0.874408    1.335957   -1.250328
      7          1           0        0.874408    1.335957   -1.250328
      8          1           0        0.000000   -2.133781    0.066356
      9          1           0       -0.874408   -1.335957   -1.250328
     10          1           0        0.874408   -1.335957   -1.250328
 ---------------------------------------------------------------------
 Rotational constants (GHZ):     10.3757926      8.5231251      4.9625793
 Standard basis: 6-31G(d) (6D, 7F)
 There are    31 symmetry adapted cartesian basis functions of A1  symmetry.
 There are     8 symmetry adapted cartesian basis functions of A2  symmetry.
 There are    12 symmetry adapted cartesian basis functions of B1  symmetry.
 There are    21 symmetry adapted cartesian basis functions of B2  symmetry.
 There are    31 symmetry adapted basis functions of A1  symmetry.
 There are     8 symmetry adapted basis functions of A2  symmetry.
 There are    12 symmetry adapted basis functions of B1  symmetry.
 There are    21 symmetry adapted basis functions of B2  symmetry.
    72 basis functions,   136 primitive gaussians,    72 cartesian basis functions
    16 alpha electrons       16 beta electrons
       nuclear repulsion energy       120.1507549271 Hartrees.
 NAtoms=   10 NActive=   10 NUniq=    5 SFac= 4.00D+00 NAtFMM=   60 NAOKFM=F Big=F
 Integral buffers will be    131072 words long.
 Raffenetti 1 integral format.
 Two-electron integral symmetry is turned on.
 One-electron integrals computed using PRISM.
 NBasis=    72 RedAO= T EigKep=  6.42D-03  NBF=    31     8    12    21
 NBsUse=    72 1.00D-06 EigRej= -1.00D+00 NBFU=    31     8    12    21
 Initial guess from the checkpoint file:  "S0_opt_hf_6-31gd.chk"
 B after Tr=     0.000000    0.000000    0.000000
         Rot=    1.000000    0.000000    0.000000    0.000000 Ang=   0.00 deg.
 Initial guess orbital symmetries:
       Occupied  (A1) (A1) (B2) (A1) (A1) (A1) (B2) (A1) (B2) (A1)
                 (B1) (A1) (A2) (B2) (B1) (B2)
       Virtual   (B1) (A1) (A1) (B2) (B1) (A2) (B2) (A1) (B2) (A1)
                 (A1) (B1) (A2) (A1) (B2) (B1) (B2) (A1) (B2) (A1)
                 (A1) (B1) (A2) (B2) (A1) (A1) (B2) (B1) (B2) (A1)
                 (A2) (B2) (B1) (A1) (A1) (B2) (A2) (B2) (A1) (B1)
                 (A1) (A2) (A1) (B2) (B1) (B2) (A2) (A1) (B1) (A1)
                 (A1) (B2) (A1) (A1) (B2) (A1)
 Keep R1 ints in memory in symmetry-blocked form, NReq=4401775.
 Requested convergence on RMS density matrix=1.00D-08 within 128 cycles.
 Requested convergence on MAX density matrix=1.00D-06.
 Requested convergence on             energy=1.00D-06.
 No special actions if energy rises.
 SCF Done:  E(RHF) =  -191.962236287     A.U. after    1 cycles
            NFock=  1  Conv=0.57D-09     -V/T= 2.0013
 ExpMin= 1.61D-01 ExpMax= 5.48D+03 ExpMxC= 8.25D+02 IAcc=3 IRadAn=         5 AccDes= 0.00D+00
 HarFok:  IExCor=  205 AccDes= 0.00D+00 IRadAn=         5 IDoV=-2 UseB2=F ITyADJ=14
 ICtDFT= 12500011 ScaDFX=  1.000000  1.000000  1.000000  1.000000
 Range of M.O.s used for correlation:     5    72
 NBasis=    72 NAE=    16 NBE=    16 NFC=     4 NFV=     0
 NROrb=     68 NOA=    12 NOB=    12 NVA=    56 NVB=    56
 Semi-Direct transformation.
 ModeAB=           4 MOrb=            12 LenV=    1341933035
 LASXX=       599787 LTotXX=      599787 LenRXX=     1234359
 LTotAB=      634572 MaxLAS=     1246032 LenRXY=           0
 NonZer=     1834146 LenScr=     3438080 LnRSAI=     1246032
 LnScr1=     2490368 LExtra=           0 Total=      8408839
 MaxDsk=          -1 SrtSym=           T ITran=            3
 JobTyp=0 Pass  1:  I=   1 to  12.
 (rs|ai) integrals will be sorted in core.
 Spin components of T(2) and E(2):
     alpha-alpha T2 =       0.2214620517D-01 E2=     -0.6987996661D-01
     alpha-beta  T2 =       0.1334827761D+00 E2=     -0.4196100148D+00
     beta-beta   T2 =       0.2214620517D-01 E2=     -0.6987996661D-01
 ANorm=    0.1085253513D+01
 E2 =    -0.5593699480D+00 EUMP2 =    -0.19252160623491D+03
 Orbital symmetries:
       Occupied  (A1) (A1) (B2) (A1) (A1) (A1) (B2) (A1) (B2) (A1)
                 (B1) (A1) (A2) (B2) (B1) (B2)
       Virtual   (B1) (A1) (A1) (B2) (B1) (A2) (B2) (A1) (B2) (A1)
                 (A1) (B1) (A2) (A1) (B2) (B1) (B2) (A1) (B2) (A1)
                 (A1) (B1) (A2) (B2) (A1) (A1) (B2) (B1) (B2) (A1)
                 (A2) (B2) (B1) (A1) (A1) (B2) (A2) (B2) (A1) (B1)
                 (A1) (A2) (A1) (B2) (B1) (B2) (A2) (A1) (B1) (A1)
                 (A1) (B2) (A1) (A1) (B2) (A1)
   672 initial guesses have been made.
 Convergence on wavefunction:    0.001000000000000
 *** WARNING: Number of orthogonal guesses is          672
 Iteration     1 Dimension   672 NMult     0 NNew    672
 New state      2 was old state      5
 New state      3 was old state      2
 New state      4 was old state      3
 New state      5 was old state      6
 New state      6 was old state      7
 New state      7 was old state      4
 New state      8 was old state     11
 New state      9 was old state     14
 New state     10 was old state     12
 New state     11 was old state     10
 New state     12 was old state     13
 New state     13 was old state     15
 New state     14 was old state     19
 New state     15 was old state     18
 New state     16 was old state      9
 New state     17 was old state     16
 New state     18 was old state     20
 New state     19 was old state      8
 New state     20 was old state     17
 New state     21 was old state     29
 New state     22 was old state     26
 New state     23 was old state     31
 New state     24 was old state     21
 New state     25 was old state     35
 New state     26 was old state     32
 New state     27 was old state     36
 New state     28 was old state     23
 New state     29 was old state     25
 New state     30 was old state     22
 New state     31 was old state     30
 New state     32 was old state     50
 New state     33 was old state     34
 New state     34 was old state     33
 New state     35 was old state     27
 New state     36 was old state     43
 New state     37 was old state     40
 New state     38 was old state     44
 New state     39 was old state     24
 New state     40 was old state     28
 New state     41 was old state     38
 New state     42 was old state     53
 New state     43 was old state     42
 New state     44 was old state     46
 New state     45 was old state     41
 New state     46 was old state     47
 New state     47 was old state     39
 New state     48 was old state     37
 New state     49 was old state     45
 New state     50 was old state     54
 New state     52 was old state     57
 New state     53 was old state     65
 New state     54 was old state     56
 New state     55 was old state     60
 New state     56 was old state     52
 New state     57 was old state     59
 New state     58 was old state     48
 New state     59 was old state     64
 New state     60 was old state     68
 New state     61 was old state     63
 New state     62 was old state     58
 New state     63 was old state     61
 New state     64 was old state     55
 New state     65 was old state     66
 New state     66 was old state     74
 New state     68 was old state     69
 New state     69 was old state     70
 New state     70 was old state     81
 New state     72 was old state     62
 New state     74 was old state     76
 New state     75 was old state     72
 New state     76 was old state     77
 New state     77 was old state     75
 New state     78 was old state     90
 New state     79 was old state     84
 New state     80 was old state     83
 New state     81 was old state     80
 No map to state     82
 New state     83 was old state     79
 New state     84 was old state     86
 New state     85 was old state     82
 New state     86 was old state     85
 New state     89 was old state     91
 New state     90 was old state     78
 New state     91 was old state     89
 New state     92 was old state     93
 New state     93 was old state     92
 New state     94 was old state     95
 New state     95 was old state     96
 New state     96 was old state     94
 New state     98 was old state    102
 New state     99 was old state    101
 New state    100 was old state     99
 New state    101 was old state     98
 New state    102 was old state    100
 New state    103 was old state    111
 New state    105 was old state    103
 New state    106 was old state    112
 New state    107 was old state    106
 New state    108 was old state    114
 New state    109 was old state    110
 New state    110 was old state    117
 New state    111 was old state    107
 New state    112 was old state    113
 New state    113 was old state    116
 New state    114 was old state    118
 New state    115 was old state    121
 New state    116 was old state    125
 New state    117 was old state    132
 New state    118 was old state    109
 New state    119 was old state    134
 New state    120 was old state    115
 New state    121 was old state    129
 New state    122 was old state    136
 New state    123 was old state    122
 New state    124 was old state    105
 New state    125 was old state    135
 New state    126 was old state    108
 New state    127 was old state    128
 New state    128 was old state    119
 New state    129 was old state    126
 New state    130 was old state    120
 New state    131 was old state    170
 New state    132 was old state    140
 New state    133 was old state    127
 New state    134 was old state    133
 New state    135 was old state    124
 New state    136 was old state    131
 New state    137 was old state    139
 New state    138 was old state    146
 New state    139 was old state    123
 New state    140 was old state    137
 New state    141 was old state    147
 New state    142 was old state    138
 New state    143 was old state    142
 New state    144 was old state    151
 New state    145 was old state    148
 New state    146 was old state    141
 New state    147 was old state    172
 New state    148 was old state    130
 New state    149 was old state    152
 New state    150 was old state    144
 New state    151 was old state    149
 New state    152 was old state    145
 New state    154 was old state    150
 New state    155 was old state    143
 New state    156 was old state    154
 New state    157 was old state    174
 New state    158 was old state    195
 New state    159 was old state    155
 New state    160 was old state    163
 New state    161 was old state    157
 New state    162 was old state    175
 New state    163 was old state    159
 New state    164 was old state    156
 New state    165 was old state    160
 New state    166 was old state    158
 New state    168 was old state    169
 New state    169 was old state    165
 New state    170 was old state    192
 New state    171 was old state    164
 New state    172 was old state    168
 New state    174 was old state    166
 New state    175 was old state    177
 New state    176 was old state    171
 New state    177 was old state    179
 New state    178 was old state    182
 New state    179 was old state    185
 New state    180 was old state    186
 New state    181 was old state    178
 New state    182 was old state    216
 New state    183 was old state    189
 New state    184 was old state    187
 New state    185 was old state    190
 New state    186 was old state    180
 New state    187 was old state    193
 New state    188 was old state    194
 New state    189 was old state    161
 New state    190 was old state    184
 New state    192 was old state    162
 New state    193 was old state    207
 New state    194 was old state    198
 New state    195 was old state    181
 New state    196 was old state    215
 New state    197 was old state    188
 New state    198 was old state    218
 New state    200 was old state    239
 ***********************************************************************
 Excited states from <AA,BB:AA,BB> singles matrix:
 ***********************************************************************
 
 Ground to excited state transition densities written to RWF  633
 Ground to excited state transition electric dipole moments (Au):
       state          X           Y           Z        Dip. S.      Osc.
         1         0.0000      0.0000      0.0000      0.0000      0.0000
         2        -0.0492      0.0000      0.0000      0.0024      0.0006
         3         0.0000      0.0000      1.1339      1.2858      0.3299
         4         0.0000      0.0000      0.0000      0.0000      0.0000
         5         0.0000      0.2899      0.0000      0.0841      0.0235
         6         0.0000     -0.4355      0.0000      0.1897      0.0576
         7         0.0000      0.3707      0.0000      0.1374      0.0448
         8         0.0000      0.0000      0.0000      0.0000      0.0000
         9        -0.9165      0.0000      0.0000      0.8400      0.2795
        10         0.0000      0.0000     -0.5747      0.3303      0.1106
        11         0.0000      0.0000      0.0000      0.0000      0.0000
        12         0.0000     -0.6793      0.0000      0.4614      0.1553
        13         0.2153      0.0000      0.0000      0.0464      0.0156
        14         0.0000      0.0000      0.0000      0.0000      0.0000
        15         0.0000     -1.5416      0.0000      2.3766      0.8098
        16         0.7295      0.0000      0.0000      0.5321      0.1815
        17         0.0000      0.0000     -0.4910      0.2411      0.0827
        18         0.0000      0.0000      1.2706      1.6145      0.5718
        19         0.0000      0.0000     -0.6504      0.4231      0.1525
        20        -0.1179      0.0000      0.0000      0.0139      0.0050
        21         0.0000      0.0000      0.0000      0.0000      0.0000
        22         0.0000     -1.4685      0.0000      2.1566      0.8109
        23         0.0000      0.1000      0.0000      0.0100      0.0039
        24         0.0000      0.0000      0.9400      0.8836      0.3430
        25         1.3287      0.0000      0.0000      1.7655      0.6857
        26         0.0000      0.0000      0.0000      0.0000      0.0000
        27         0.1924      0.0000      0.0000      0.0370      0.0145
        28         0.2638      0.0000      0.0000      0.0696      0.0275
        29         0.0000     -0.3935      0.0000      0.1548      0.0620
        30         0.0000      0.0000      0.0000      0.0000      0.0000
        31         0.0000      0.0000      0.2127      0.0452      0.0184
        32        -0.2172      0.0000      0.0000      0.0472      0.0193
        33         0.0000      0.0026      0.0000      0.0000      0.0000
        34         0.0000      0.0000     -0.2570      0.0661      0.0273
        35         0.0000      0.0000      0.6990      0.4886      0.2038
        36         0.0000     -0.1876      0.0000      0.0352      0.0149
        37         0.0000      0.0000      0.0000      0.0000      0.0000
        38         0.0000      0.0000     -0.4396      0.1932      0.0822
        39        -1.3019      0.0000      0.0000      1.6949      0.7243
        40         0.0000      0.0000      0.0000      0.0000      0.0000
        41         0.0000     -0.4150      0.0000      0.1723      0.0749
        42         0.0000     -0.4800      0.0000      0.2304      0.1010
        43        -0.0926      0.0000      0.0000      0.0086      0.0038
        44         0.0000      0.0000     -0.3134      0.0982      0.0436
        45         0.0000      0.0000     -1.2932      1.6723      0.7455
        46         0.0000      0.0000      0.0000      0.0000      0.0000
        47        -0.4471      0.0000      0.0000      0.1999      0.0899
        48         0.0000      0.0000      0.0861      0.0074      0.0034
        49         0.0000      0.3999      0.0000      0.1599      0.0736
        50         0.4512      0.0000      0.0000      0.2036      0.0939
        51         0.0000      0.0000      0.0000      0.0000      0.0000
        52         0.5466      0.0000      0.0000      0.2988      0.1389
        53         0.0000      0.8800      0.0000      0.7745      0.3713
        54         0.0000      0.0000      0.0000      0.0000      0.0000
        55         0.0000      0.0000     -0.9076      0.8237      0.3963
        56         0.0000      0.0000      0.5616      0.3154      0.1532
        57         0.0000     -0.3030      0.0000      0.0918      0.0447
        58         0.1407      0.0000      0.0000      0.0198      0.0096
        59         0.0000      0.0000      0.3197      0.1022      0.0502
        60         0.0000      0.3565      0.0000      0.1271      0.0624
        61         0.0000      0.0000      0.0000      0.0000      0.0000
        62         0.1009      0.0000      0.0000      0.0102      0.0051
        63         0.0000      0.1753      0.0000      0.0307      0.0153
        64         0.0000      0.0000      0.2933      0.0860      0.0427
        65         0.0000      0.0000      0.0000      0.0000      0.0000
        66         0.0000      0.0000     -0.1836      0.0337      0.0169
        67         0.0000      0.0000      0.0000      0.0000      0.0000
        68        -0.5153      0.0000      0.0000      0.2655      0.1340
        69         0.0000      0.0000      0.2259      0.0510      0.0262
        70         0.0000     -0.7871      0.0000      0.6195      0.3185
        71         0.0000     -0.5255      0.0000      0.2761      0.1438
        72         0.0000      0.0000     -0.5913      0.3497      0.1841
        73         0.0000      0.6836      0.0000      0.4673      0.2461
        74         0.0000      0.0000      0.6632      0.4398      0.2342
        75         0.5274      0.0000      0.0000      0.2782      0.1500
        76         0.0000      0.0000      0.2066      0.0427      0.0231
        77         0.0000      0.0000      0.0000      0.0000      0.0000
        78         0.0000      0.0000      0.0000      0.0000      0.0000
        79         0.0000     -0.1462      0.0000      0.0214      0.0119
        80         0.0000      0.3012      0.0000      0.0907      0.0509
        81         0.3426      0.0000      0.0000      0.1174      0.0664
        82         0.0000      0.1771      0.0000      0.0314      0.0177
        83         0.0000      0.0000      0.0000      0.0000      0.0000
        84         0.0000      0.0000      0.0000      0.0000      0.0000
        85         0.0000      0.0000      0.0036      0.0000      0.0000
        86         0.0000      0.0000      0.0281      0.0008      0.0005
        87         0.3054      0.0000      0.0000      0.0933      0.0541
        88         0.0000      0.0089      0.0000      0.0001      0.0000
        89         0.0000     -0.1206      0.0000      0.0145      0.0085
        90         0.0000      0.0000      0.0000      0.0000      0.0000
        91         0.0000      0.0000     -0.4434      0.1966      0.1156
        92        -0.0835      0.0000      0.0000      0.0070      0.0042
        93        -0.0176      0.0000      0.0000      0.0003      0.0002
        94         0.0000      0.0000      0.0690      0.0048      0.0030
        95         0.0000     -0.0729      0.0000      0.0053      0.0033
        96        -0.3594      0.0000      0.0000      0.1291      0.0813
        97         0.0000      0.2920      0.0000      0.0853      0.0540
        98         0.0000      0.0000      0.0000      0.0000      0.0000
        99         0.0000      0.4332      0.0000      0.1877      0.1197
       100         0.0000      0.0000     -0.1009      0.0102      0.0065
       101         0.0000      0.0000     -0.7151      0.5114      0.3294
       102         0.0000     -0.2991      0.0000      0.0895      0.0579
       103         0.0000     -0.4207      0.0000      0.1769      0.1150
       104         0.0000      0.0000      0.0000      0.0000      0.0000
       105         0.0000      0.0000     -0.4623      0.2137      0.1396
       106        -0.4656      0.0000      0.0000      0.2168      0.1418
       107         0.0000      0.0000      0.0000      0.0000      0.0000
       108         0.0000     -0.0592      0.0000      0.0035      0.0023
       109         0.0000      0.1114      0.0000      0.0124      0.0083
       110         0.0000      0.0000     -0.0254      0.0006      0.0004
       111        -0.7349      0.0000      0.0000      0.5401      0.3609
       112         0.0000      0.0000      0.3662      0.1341      0.0899
       113         0.0000      0.0000      0.0000      0.0000      0.0000
       114         0.0000      0.0000      0.0000      0.0000      0.0000
       115         0.0000     -0.3188      0.0000      0.1016      0.0693
       116        -0.2156      0.0000      0.0000      0.0465      0.0318
       117         0.0000      0.0000     -0.2603      0.0678      0.0464
       118         0.0024      0.0000      0.0000      0.0000      0.0000
       119         0.0000      0.0000      0.6753      0.4560      0.3143
       120        -0.3414      0.0000      0.0000      0.1166      0.0806
       121         0.0000      0.0000      0.0000      0.0000      0.0000
       122        -0.5946      0.0000      0.0000      0.3535      0.2466
       123         0.0000      0.0000      0.2270      0.0515      0.0361
       124         0.0000     -0.1961      0.0000      0.0384      0.0272
       125         0.0000      0.0000      0.0000      0.0000      0.0000
       126         0.0000     -0.1269      0.0000      0.0161      0.0115
       127         0.0000      0.0916      0.0000      0.0084      0.0060
       128         0.0000      0.0000     -0.4225      0.1785      0.1283
       129         0.5218      0.0000      0.0000      0.2722      0.1975
       130         0.0000      0.0000      0.3112      0.0968      0.0703
       131         0.0000     -0.1664      0.0000      0.0277      0.0202
       132         0.0000      0.0000     -0.4603      0.2119      0.1567
       133         0.0000      0.5040      0.0000      0.2540      0.1884
       134        -0.0895      0.0000      0.0000      0.0080      0.0060
       135         0.0000      0.0000      0.0000      0.0000      0.0000
       136         0.0000      0.0000     -0.2126      0.0452      0.0339
       137         0.0000     -0.2609      0.0000      0.0681      0.0513
       138         0.0000      0.0000      0.0000      0.0000      0.0000
       139         0.0000      0.0000      0.1175      0.0138      0.0104
       140         0.0000      0.1585      0.0000      0.0251      0.0190
       141         0.0000      0.0000      0.0000      0.0000      0.0000
       142         0.0803      0.0000      0.0000      0.0064      0.0049
       143         0.0000      0.0000     -0.0960      0.0092      0.0070
       144        -0.1506      0.0000      0.0000      0.0227      0.0174
       145         0.0000      0.0000      0.0000      0.0000      0.0000
       146         0.0000     -0.1029      0.0000      0.0106      0.0081
       147         0.0222      0.0000      0.0000      0.0005      0.0004
       148         0.0000      0.0000      0.1271      0.0161      0.0125
       149         0.0000      0.0860      0.0000      0.0074      0.0057
       150         0.0000      0.0000      0.2397      0.0574      0.0446
       151         0.0000     -0.2442      0.0000      0.0596      0.0464
       152         0.1528      0.0000      0.0000      0.0234      0.0183
       153         0.0000      0.0000     -0.5168      0.2671      0.2096
       154         0.0000      0.0000      0.1279      0.0164      0.0129
       155         0.0000      0.0000      0.0000      0.0000      0.0000
       156         0.0000      0.1364      0.0000      0.0186      0.0148
       157         0.0000     -0.1390      0.0000      0.0193      0.0154
       158        -0.2623      0.0000      0.0000      0.0688      0.0549
       159         0.0000      0.0000      0.0387      0.0015      0.0012
       160        -0.0483      0.0000      0.0000      0.0023      0.0019
       161         0.0000      0.0000     -0.0300      0.0009      0.0007
       162         0.0000      0.0000      0.0000      0.0000      0.0000
       163         0.0000     -0.0226      0.0000      0.0005      0.0004
       164         0.0000      0.1454      0.0000      0.0211      0.0172
       165         0.0000      0.0000      0.4751      0.2258      0.1840
       166         0.0000      0.0000      0.0000      0.0000      0.0000
       167         0.1739      0.0000      0.0000      0.0302      0.0249
       168         0.0000      0.0000      0.0000      0.0000      0.0000
       169        -0.0627      0.0000      0.0000      0.0039      0.0033
       170         0.0000      0.0000      0.3907      0.1526      0.1267
       171         0.0000      0.2700      0.0000      0.0729      0.0609
       172         0.0000     -0.0095      0.0000      0.0001      0.0001
       173         0.0000      0.0000      0.0000      0.0000      0.0000
       174        -0.3506      0.0000      0.0000      0.1230      0.1036
       175         0.0000      0.0000     -0.4323      0.1869      0.1576
       176         0.0000      0.1106      0.0000      0.0122      0.0103
       177         0.0000      0.0000      0.5224      0.2729      0.2315
       178         0.0000      0.0000      0.2394      0.0573      0.0491
       179         0.0000      0.0000      0.0000      0.0000      0.0000
       180        -0.4562      0.0000      0.0000      0.2081      0.1788
       181         0.0000     -0.0491      0.0000      0.0024      0.0021
       182         0.0000      0.0000      0.0000      0.0000      0.0000
       183        -0.0153      0.0000      0.0000      0.0002      0.0002
       184         0.0000      0.0000      0.1430      0.0205      0.0178
       185         0.0000     -0.1841      0.0000      0.0339      0.0295
       186         0.0000      0.0000     -0.1954      0.0382      0.0332
       187        -0.1743      0.0000      0.0000      0.0304      0.0265
       188         0.0000      0.0000      0.1946      0.0379      0.0332
       189         0.0000      0.0000      0.0000      0.0000      0.0000
       190         0.0000      0.3215      0.0000      0.1033      0.0908
       191         0.0000      0.0000      0.0000      0.0000      0.0000
       192         0.0000      0.0000      0.2082      0.0434      0.0382
       193         0.0000      0.0000      0.0000      0.0000      0.0000
       194         0.0000      0.0336      0.0000      0.0011      0.0010
       195         0.0000      0.0000      0.0177      0.0003      0.0003
       196         0.0000      0.4374      0.0000      0.1913      0.1707
       197         0.0000      0.0612      0.0000      0.0037      0.0033
       198         0.3593      0.0000      0.0000      0.1291      0.1157
       199         0.0000      0.0000      0.0000      0.0000      0.0000
       200         0.0000      0.0000     -0.1334      0.0178      0.0160
 Ground to excited state transition velocity dipole moments (Au):
       state          X           Y           Z        Dip. S.      Osc.
         1         0.0000      0.0000      0.0000      0.0000      0.0000
         2         0.0130      0.0000      0.0000      0.0002      0.0003
         3         0.0000      0.0000     -0.1576      0.0249      0.0430
         4         0.0000      0.0000      0.0000      0.0000      0.0000
         5         0.0000     -0.1613      0.0000      0.0260      0.0413
         6         0.0000      0.1274      0.0000      0.0162      0.0238
         7         0.0000     -0.1282      0.0000      0.0164      0.0224
         8         0.0000      0.0000      0.0000      0.0000      0.0000
         9         0.4087      0.0000      0.0000      0.1670      0.2231
        10         0.0000      0.0000      0.2014      0.0406      0.0539
        11         0.0000      0.0000      0.0000      0.0000      0.0000
        12         0.0000      0.3120      0.0000      0.0973      0.1285
        13        -0.0704      0.0000      0.0000      0.0050      0.0065
        14         0.0000      0.0000      0.0000      0.0000      0.0000
        15         0.0000      0.6873      0.0000      0.4724      0.6162
        16        -0.2718      0.0000      0.0000      0.0739      0.0963
        17         0.0000      0.0000      0.1793      0.0322      0.0417
        18         0.0000      0.0000     -0.5871      0.3447      0.4325
        19         0.0000      0.0000      0.2715      0.0737      0.0909
        20         0.0278      0.0000      0.0000      0.0008      0.0009
        21         0.0000      0.0000      0.0000      0.0000      0.0000
        22         0.0000      0.7372      0.0000      0.5435      0.6424
        23         0.0000     -0.0951      0.0000      0.0091      0.0104
        24         0.0000      0.0000     -0.4306      0.1854      0.2123
        25        -0.7003      0.0000      0.0000      0.4905      0.5613
        26         0.0000      0.0000      0.0000      0.0000      0.0000
        27        -0.0833      0.0000      0.0000      0.0069      0.0079
        28        -0.1231      0.0000      0.0000      0.0152      0.0171
        29         0.0000      0.2411      0.0000      0.0581      0.0645
        30         0.0000      0.0000      0.0000      0.0000      0.0000
        31         0.0000      0.0000     -0.1716      0.0294      0.0322
        32         0.0571      0.0000      0.0000      0.0033      0.0035
        33         0.0000      0.0542      0.0000      0.0029      0.0032
        34         0.0000      0.0000      0.1566      0.0245      0.0264
        35         0.0000      0.0000     -0.3122      0.0975      0.1039
        36         0.0000      0.1347      0.0000      0.0181      0.0190
        37         0.0000      0.0000      0.0000      0.0000      0.0000
        38         0.0000      0.0000      0.2934      0.0861      0.0899
        39         0.5335      0.0000      0.0000      0.2847      0.2960
        40         0.0000      0.0000      0.0000      0.0000      0.0000
        41         0.0000      0.1354      0.0000      0.0183      0.0187
        42         0.0000      0.2956      0.0000      0.0874      0.0886
        43         0.0882      0.0000      0.0000      0.0078      0.0078
        44         0.0000      0.0000      0.1808      0.0327      0.0327
        45         0.0000      0.0000      0.5987      0.3584      0.3573
        46         0.0000      0.0000      0.0000      0.0000      0.0000
        47         0.1906      0.0000      0.0000      0.0363      0.0359
        48         0.0000      0.0000     -0.0426      0.0018      0.0018
        49         0.0000     -0.1918      0.0000      0.0368      0.0355
        50        -0.2378      0.0000      0.0000      0.0565      0.0545
        51         0.0000      0.0000      0.0000      0.0000      0.0000
        52        -0.2865      0.0000      0.0000      0.0821      0.0785
        53         0.0000     -0.5688      0.0000      0.3235      0.2999
        54         0.0000      0.0000      0.0000      0.0000      0.0000
        55         0.0000      0.0000      0.5628      0.3167      0.2926
        56         0.0000      0.0000     -0.3035      0.0921      0.0842
        57         0.0000      0.1942      0.0000      0.0377      0.0344
        58        -0.0313      0.0000      0.0000      0.0010      0.0009
        59         0.0000      0.0000     -0.1189      0.0141      0.0128
        60         0.0000     -0.2041      0.0000      0.0417      0.0377
        61         0.0000      0.0000      0.0000      0.0000      0.0000
        62        -0.0300      0.0000      0.0000      0.0009      0.0008
        63         0.0000     -0.1001      0.0000      0.0100      0.0090
        64         0.0000      0.0000     -0.1218      0.0148      0.0133
        65         0.0000      0.0000      0.0000      0.0000      0.0000
        66         0.0000      0.0000      0.1338      0.0179      0.0158
        67         0.0000      0.0000      0.0000      0.0000      0.0000
        68         0.2873      0.0000      0.0000      0.0825      0.0727
        69         0.0000      0.0000     -0.2114      0.0447      0.0387
        70         0.0000      0.4164      0.0000      0.1734      0.1499
        71         0.0000      0.3361      0.0000      0.1129      0.0964
        72         0.0000      0.0000      0.3317      0.1100      0.0929
        73         0.0000     -0.4106      0.0000      0.1686      0.1423
        74         0.0000      0.0000     -0.4511      0.2035      0.1698
        75        -0.2985      0.0000      0.0000      0.0891      0.0734
        76         0.0000      0.0000     -0.1738      0.0302      0.0248
        77         0.0000      0.0000      0.0000      0.0000      0.0000
        78         0.0000      0.0000      0.0000      0.0000      0.0000
        79         0.0000      0.1528      0.0000      0.0234      0.0186
        80         0.0000     -0.1345      0.0000      0.0181      0.0143
        81        -0.1669      0.0000      0.0000      0.0279      0.0219
        82         0.0000     -0.1807      0.0000      0.0326      0.0256
        83         0.0000      0.0000      0.0000      0.0000      0.0000
        84         0.0000      0.0000      0.0000      0.0000      0.0000
        85         0.0000      0.0000      0.0692      0.0048      0.0037
        86         0.0000      0.0000      0.0097      0.0001      0.0001
        87        -0.1209      0.0000      0.0000      0.0146      0.0112
        88         0.0000     -0.0674      0.0000      0.0045      0.0035
        89         0.0000      0.0431      0.0000      0.0019      0.0014
        90         0.0000      0.0000      0.0000      0.0000      0.0000
        91         0.0000      0.0000      0.3312      0.1097      0.0829
        92        -0.0453      0.0000      0.0000      0.0021      0.0015
        93         0.0194      0.0000      0.0000      0.0004      0.0003
        94         0.0000      0.0000     -0.0368      0.0014      0.0010
        95         0.0000     -0.0033      0.0000      0.0000      0.0000
        96         0.1759      0.0000      0.0000      0.0309      0.0218
        97         0.0000     -0.2676      0.0000      0.0716      0.0503
        98         0.0000      0.0000      0.0000      0.0000      0.0000
        99         0.0000     -0.3089      0.0000      0.0954      0.0665
       100         0.0000      0.0000      0.0951      0.0090      0.0063
       101         0.0000      0.0000      0.5150      0.2652      0.1830
       102         0.0000      0.1751      0.0000      0.0307      0.0211
       103         0.0000      0.2227      0.0000      0.0496      0.0339
       104         0.0000      0.0000      0.0000      0.0000      0.0000
       105         0.0000      0.0000      0.2799      0.0783      0.0533
       106         0.2326      0.0000      0.0000      0.0541      0.0368
       107         0.0000      0.0000      0.0000      0.0000      0.0000
       108         0.0000     -0.0055      0.0000      0.0000      0.0000
       109         0.0000     -0.0714      0.0000      0.0051      0.0034
       110         0.0000      0.0000      0.0214      0.0005      0.0003
       111         0.4515      0.0000      0.0000      0.2038      0.1356
       112         0.0000      0.0000     -0.2413      0.0582      0.0386
       113         0.0000      0.0000      0.0000      0.0000      0.0000
       114         0.0000      0.0000      0.0000      0.0000      0.0000
       115         0.0000      0.2153      0.0000      0.0463      0.0302
       116         0.1005      0.0000      0.0000      0.0101      0.0066
       117         0.0000      0.0000      0.1267      0.0161      0.0104
       118        -0.0645      0.0000      0.0000      0.0042      0.0027
       119         0.0000      0.0000     -0.3455      0.1194      0.0770
       120         0.2267      0.0000      0.0000      0.0514      0.0330
       121         0.0000      0.0000      0.0000      0.0000      0.0000
       122         0.3906      0.0000      0.0000      0.1526      0.0972
       123         0.0000      0.0000     -0.0969      0.0094      0.0059
       124         0.0000      0.1188      0.0000      0.0141      0.0089
       125         0.0000      0.0000      0.0000      0.0000      0.0000
       126         0.0000      0.0905      0.0000      0.0082      0.0051
       127         0.0000     -0.0485      0.0000      0.0024      0.0015
       128         0.0000      0.0000      0.2750      0.0756      0.0468
       129        -0.2778      0.0000      0.0000      0.0772      0.0473
       130         0.0000      0.0000     -0.2239      0.0502      0.0307
       131         0.0000      0.0984      0.0000      0.0097      0.0059
       132         0.0000      0.0000      0.3730      0.1391      0.0836
       133         0.0000     -0.3995      0.0000      0.1596      0.0956
       134         0.0302      0.0000      0.0000      0.0009      0.0005
       135         0.0000      0.0000      0.0000      0.0000      0.0000
       136         0.0000      0.0000      0.1719      0.0296      0.0175
       137         0.0000      0.1675      0.0000      0.0280      0.0165
       138         0.0000      0.0000      0.0000      0.0000      0.0000
       139         0.0000      0.0000     -0.1251      0.0157      0.0092
       140         0.0000     -0.1234      0.0000      0.0152      0.0089
       141         0.0000      0.0000      0.0000      0.0000      0.0000
       142        -0.0951      0.0000      0.0000      0.0090      0.0053
       143         0.0000      0.0000      0.1304      0.0170      0.0099
       144         0.0496      0.0000      0.0000      0.0025      0.0014
       145         0.0000      0.0000      0.0000      0.0000      0.0000
       146         0.0000      0.0445      0.0000      0.0020      0.0011
       147        -0.0140      0.0000      0.0000      0.0002      0.0001
       148         0.0000      0.0000     -0.0493      0.0024      0.0014
       149         0.0000     -0.0135      0.0000      0.0002      0.0001
       150         0.0000      0.0000     -0.2128      0.0453      0.0259
       151         0.0000      0.2173      0.0000      0.0472      0.0270
       152        -0.0739      0.0000      0.0000      0.0055      0.0031
       153         0.0000      0.0000      0.4041      0.1633      0.0925
       154         0.0000      0.0000     -0.0356      0.0013      0.0007
       155         0.0000      0.0000      0.0000      0.0000      0.0000
       156         0.0000     -0.1512      0.0000      0.0229      0.0128
       157         0.0000      0.1184      0.0000      0.0140      0.0078
       158         0.1910      0.0000      0.0000      0.0365      0.0203
       159         0.0000      0.0000     -0.0239      0.0006      0.0003
       160        -0.0544      0.0000      0.0000      0.0030      0.0016
       161         0.0000      0.0000      0.0684      0.0047      0.0026
       162         0.0000      0.0000      0.0000      0.0000      0.0000
       163         0.0000      0.0327      0.0000      0.0011      0.0006
       164         0.0000     -0.1384      0.0000      0.0192      0.0105
       165         0.0000      0.0000     -0.4224      0.1784      0.0973
       166         0.0000      0.0000      0.0000      0.0000      0.0000
       167        -0.1402      0.0000      0.0000      0.0197      0.0106
       168         0.0000      0.0000      0.0000      0.0000      0.0000
       169         0.0393      0.0000      0.0000      0.0015      0.0008
       170         0.0000      0.0000     -0.3233      0.1045      0.0560
       171         0.0000     -0.2112      0.0000      0.0446      0.0237
       172         0.0000      0.0032      0.0000      0.0000      0.0000
       173         0.0000      0.0000      0.0000      0.0000      0.0000
       174         0.2152      0.0000      0.0000      0.0463      0.0244
       175         0.0000      0.0000      0.3646      0.1329      0.0700
       176         0.0000     -0.0599      0.0000      0.0036      0.0019
       177         0.0000      0.0000     -0.5238      0.2744      0.1438
       178         0.0000      0.0000     -0.2338      0.0547      0.0284
       179         0.0000      0.0000      0.0000      0.0000      0.0000
       180         0.4356      0.0000      0.0000      0.1898      0.0982
       181         0.0000      0.1037      0.0000      0.0108      0.0056
       182         0.0000      0.0000      0.0000      0.0000      0.0000
       183         0.0239      0.0000      0.0000      0.0006      0.0003
       184         0.0000      0.0000     -0.0504      0.0025      0.0013
       185         0.0000      0.1411      0.0000      0.0199      0.0102
       186         0.0000      0.0000      0.0685      0.0047      0.0024
       187         0.0903      0.0000      0.0000      0.0082      0.0042
       188         0.0000      0.0000     -0.1449      0.0210      0.0107
       189         0.0000      0.0000      0.0000      0.0000      0.0000
       190         0.0000     -0.2648      0.0000      0.0701      0.0355
       191         0.0000      0.0000      0.0000      0.0000      0.0000
       192         0.0000      0.0000     -0.2964      0.0878      0.0443
       193         0.0000      0.0000      0.0000      0.0000      0.0000
       194         0.0000     -0.0564      0.0000      0.0032      0.0016
       195         0.0000      0.0000     -0.0513      0.0026      0.0013
       196         0.0000     -0.4757      0.0000      0.2263      0.1127
       197         0.0000     -0.1784      0.0000      0.0318      0.0158
       198        -0.2889      0.0000      0.0000      0.0834      0.0414
       199         0.0000      0.0000      0.0000      0.0000      0.0000
       200         0.0000      0.0000      0.1637      0.0268      0.0133
 Ground to excited state transition magnetic dipole moments (Au):
       state          X           Y           Z
         1         0.0000      0.0000      1.1213
         2         0.0000     -1.3649      0.0000
         3         0.0000      0.0000      0.0000
         4         0.0000      0.0000      0.3122
         5         0.7554      0.0000      0.0000
         6        -0.1594      0.0000      0.0000
         7         0.6252      0.0000      0.0000
         8         0.0000      0.0000      0.3470
         9         0.0000     -1.3373      0.0000
        10         0.0000      0.0000      0.0000
        11         0.0000      0.0000     -0.6183
        12        -1.8451      0.0000      0.0000
        13         0.0000      0.0387      0.0000
        14         0.0000      0.0000      2.5415
        15         2.0704      0.0000      0.0000
        16         0.0000     -0.2925      0.0000
        17         0.0000      0.0000      0.0000
        18         0.0000      0.0000      0.0000
        19         0.0000      0.0000      0.0000
        20         0.0000     -0.4988      0.0000
        21         0.0000      0.0000     -0.4287
        22         1.3744      0.0000      0.0000
        23         1.3988      0.0000      0.0000
        24         0.0000      0.0000      0.0000
        25         0.0000      0.6674      0.0000
        26         0.0000      0.0000     -1.1927
        27         0.0000      0.4073      0.0000
        28         0.0000     -0.2496      0.0000
        29        -0.5014      0.0000      0.0000
        30         0.0000      0.0000      0.4422
        31         0.0000      0.0000      0.0000
        32         0.0000      0.1764      0.0000
        33        -1.9575      0.0000      0.0000
        34         0.0000      0.0000      0.0000
        35         0.0000      0.0000      0.0000
        36        -0.9538      0.0000      0.0000
        37         0.0000      0.0000      1.1478
        38         0.0000      0.0000      0.0000
        39         0.0000     -0.3930      0.0000
        40         0.0000      0.0000     -0.5475
        41         0.4800      0.0000      0.0000
        42        -0.3199      0.0000      0.0000
        43         0.0000      0.4897      0.0000
        44         0.0000      0.0000      0.0000
        45         0.0000      0.0000      0.0000
        46         0.0000      0.0000     -0.5206
        47         0.0000     -0.1204      0.0000
        48         0.0000      0.0000      0.0000
        49        -0.0127      0.0000      0.0000
        50         0.0000     -0.7339      0.0000
        51         0.0000      0.0000     -0.3274
        52         0.0000      0.6797      0.0000
        53         0.0581      0.0000      0.0000
        54         0.0000      0.0000      0.3616
        55         0.0000      0.0000      0.0000
        56         0.0000      0.0000      0.0000
        57         0.1615      0.0000      0.0000
        58         0.0000      0.1372      0.0000
        59         0.0000      0.0000      0.0000
        60        -0.4245      0.0000      0.0000
        61         0.0000      0.0000      0.2110
        62         0.0000      0.2319      0.0000
        63         0.2408      0.0000      0.0000
        64         0.0000      0.0000      0.0000
        65         0.0000      0.0000     -0.2359
        66         0.0000      0.0000      0.0000
        67         0.0000      0.0000      0.1635
        68         0.0000      0.0555      0.0000
        69         0.0000      0.0000      0.0000
        70        -0.1064      0.0000      0.0000
        71         0.6042      0.0000      0.0000
        72         0.0000      0.0000      0.0000
        73         0.7247      0.0000      0.0000
        74         0.0000      0.0000      0.0000
        75         0.0000      0.8841      0.0000
        76         0.0000      0.0000      0.0000
        77         0.0000      0.0000     -0.7194
        78         0.0000      0.0000      0.3625
        79         0.1891      0.0000      0.0000
        80         0.4291      0.0000      0.0000
        81         0.0000      0.0437      0.0000
        82         0.4645      0.0000      0.0000
        83         0.0000      0.0000      0.8498
        84         0.0000      0.0000      0.0161
        85         0.0000      0.0000      0.0000
        86         0.0000      0.0000      0.0000
        87         0.0000      0.0073      0.0000
        88         0.1166      0.0000      0.0000
        89        -0.4729      0.0000      0.0000
        90         0.0000      0.0000     -0.1447
        91         0.0000      0.0000      0.0000
        92         0.0000      0.0435      0.0000
        93         0.0000     -0.3492      0.0000
        94         0.0000      0.0000      0.0000
        95         0.0519      0.0000      0.0000
        96         0.0000     -0.4165      0.0000
        97         0.3010      0.0000      0.0000
        98         0.0000      0.0000     -0.1716
        99        -0.8056      0.0000      0.0000
       100         0.0000      0.0000      0.0000
       101         0.0000      0.0000      0.0000
       102         1.3803      0.0000      0.0000
       103        -0.1041      0.0000      0.0000
       104         0.0000      0.0000      0.8545
       105         0.0000      0.0000      0.0000
       106         0.0000      0.4164      0.0000
       107         0.0000      0.0000      1.2305
       108         1.0821      0.0000      0.0000
       109         0.0469      0.0000      0.0000
       110         0.0000      0.0000      0.0000
       111         0.0000     -1.0470      0.0000
       112         0.0000      0.0000      0.0000
       113         0.0000      0.0000     -0.3967
       114         0.0000      0.0000      0.1094
       115         0.3035      0.0000      0.0000
       116         0.0000     -0.0114      0.0000
       117         0.0000      0.0000      0.0000
       118         0.0000     -0.2152      0.0000
       119         0.0000      0.0000      0.0000
       120         0.0000      0.9470      0.0000
       121         0.0000      0.0000      0.7799
       122         0.0000      0.3772      0.0000
       123         0.0000      0.0000      0.0000
       124         0.1535      0.0000      0.0000
       125         0.0000      0.0000      0.9604
       126         0.1797      0.0000      0.0000
       127         0.9454      0.0000      0.0000
       128         0.0000      0.0000      0.0000
       129         0.0000      0.5706      0.0000
       130         0.0000      0.0000      0.0000
       131         0.0287      0.0000      0.0000
       132         0.0000      0.0000      0.0000
       133         0.1583      0.0000      0.0000
       134         0.0000      0.0743      0.0000
       135         0.0000      0.0000      0.1541
       136         0.0000      0.0000      0.0000
       137        -0.0725      0.0000      0.0000
       138         0.0000      0.0000      0.1623
       139         0.0000      0.0000      0.0000
       140        -0.2969      0.0000      0.0000
       141         0.0000      0.0000      0.7341
       142         0.0000      0.0719      0.0000
       143         0.0000      0.0000      0.0000
       144         0.0000      0.2732      0.0000
       145         0.0000      0.0000      0.1774
       146         0.6700      0.0000      0.0000
       147         0.0000      0.0696      0.0000
       148         0.0000      0.0000      0.0000
       149         0.1018      0.0000      0.0000
       150         0.0000      0.0000      0.0000
       151        -0.1756      0.0000      0.0000
       152         0.0000      0.3134      0.0000
       153         0.0000      0.0000      0.0000
       154         0.0000      0.0000      0.0000
       155         0.0000      0.0000      0.0520
       156         1.0160      0.0000      0.0000
       157        -0.2077      0.0000      0.0000
       158         0.0000      0.1748      0.0000
       159         0.0000      0.0000      0.0000
       160         0.0000      0.1843      0.0000
       161         0.0000      0.0000      0.0000
       162         0.0000      0.0000     -0.3281
       163         0.2753      0.0000      0.0000
       164         0.0426      0.0000      0.0000
       165         0.0000      0.0000      0.0000
       166         0.0000      0.0000      0.3939
       167         0.0000     -0.4101      0.0000
       168         0.0000      0.0000     -0.0702
       169         0.0000      0.0941      0.0000
       170         0.0000      0.0000      0.0000
       171        -0.2027      0.0000      0.0000
       172        -0.2824      0.0000      0.0000
       173         0.0000      0.0000      0.4793
       174         0.0000      0.1399      0.0000
       175         0.0000      0.0000      0.0000
       176        -0.4646      0.0000      0.0000
       177         0.0000      0.0000      0.0000
       178         0.0000      0.0000      0.0000
       179         0.0000      0.0000     -0.1871
       180         0.0000     -0.1815      0.0000
       181        -0.0389      0.0000      0.0000
       182         0.0000      0.0000     -0.1349
       183         0.0000      0.0465      0.0000
       184         0.0000      0.0000      0.0000
       185         0.2915      0.0000      0.0000
       186         0.0000      0.0000      0.0000
       187         0.0000      0.1598      0.0000
       188         0.0000      0.0000      0.0000
       189         0.0000      0.0000      0.3333
       190         0.2598      0.0000      0.0000
       191         0.0000      0.0000     -0.0874
       192         0.0000      0.0000      0.0000
       193         0.0000      0.0000      0.3500
       194        -0.0780      0.0000      0.0000
       195         0.0000      0.0000      0.0000
       196        -0.4324      0.0000      0.0000
       197        -1.1450      0.0000      0.0000
       198         0.0000     -0.2380      0.0000
       199         0.0000      0.0000     -0.7618
       200         0.0000      0.0000      0.0000
 Ground to excited state transition velocity quadrupole moments (Au):
       state          XX          YY          ZZ          XY          XZ          YZ
         1         0.0000      0.0000      0.0000     -0.0159      0.0000      0.0000
         2         0.0000      0.0000      0.0000      0.0000     -0.2380      0.0000
         3         0.2316      0.6255     -0.3216      0.0000      0.0000      0.0000
         4         0.0000      0.0000      0.0000      0.0191      0.0000      0.0000
         5         0.0000      0.0000      0.0000      0.0000      0.0000      0.3401
         6         0.0000      0.0000      0.0000      0.0000      0.0000      0.0978
         7         0.0000      0.0000      0.0000      0.0000      0.0000      0.8560
         8         0.0000      0.0000      0.0000     -0.9587      0.0000      0.0000
         9         0.0000      0.0000      0.0000      0.0000     -1.5411      0.0000
        10        -0.2667     -0.4499     -0.2632      0.0000      0.0000      0.0000
        11         0.0000      0.0000      0.0000      0.2450      0.0000      0.0000
        12         0.0000      0.0000      0.0000      0.0000      0.0000     -2.0192
        13         0.0000      0.0000      0.0000      0.0000      0.3650      0.0000
        14         0.0000      0.0000      0.0000     -2.0034      0.0000      0.0000
        15         0.0000      0.0000      0.0000      0.0000      0.0000     -0.0106
        16         0.0000      0.0000      0.0000      0.0000      0.7856      0.0000
        17        -0.1995     -0.7302      0.1418      0.0000      0.0000      0.0000
        18         0.8047     -2.1637      1.3591      0.0000      0.0000      0.0000
        19        -0.4067      0.9830     -1.0078      0.0000      0.0000      0.0000
        20         0.0000      0.0000      0.0000      0.0000     -0.3092      0.0000
        21         0.0000      0.0000      0.0000     -0.4774      0.0000      0.0000
        22         0.0000      0.0000      0.0000      0.0000      0.0000      1.3298
        23         0.0000      0.0000      0.0000      0.0000      0.0000     -0.3103
        24         0.5909     -2.5364      1.3488      0.0000      0.0000      0.0000
        25         0.0000      0.0000      0.0000      0.0000      1.5867      0.0000
        26         0.0000      0.0000      0.0000      1.1140      0.0000      0.0000
        27         0.0000      0.0000      0.0000      0.0000     -0.2034      0.0000
        28         0.0000      0.0000      0.0000      0.0000      0.2201      0.0000
        29         0.0000      0.0000      0.0000      0.0000      0.0000     -0.9703
        30         0.0000      0.0000      0.0000     -0.0114      0.0000      0.0000
        31         0.4772      2.2056      0.2277      0.0000      0.0000      0.0000
        32         0.0000      0.0000      0.0000      0.0000     -0.1741      0.0000
        33         0.0000      0.0000      0.0000      0.0000      0.0000     -0.2629
        34         0.0668      0.4411      0.0531      0.0000      0.0000      0.0000
        35         0.0045      2.4847     -0.3333      0.0000      0.0000      0.0000
        36         0.0000      0.0000      0.0000      0.0000      0.0000     -0.6917
        37         0.0000      0.0000      0.0000     -0.2114      0.0000      0.0000
        38        -0.3443     -0.5092     -0.1917      0.0000      0.0000      0.0000
        39         0.0000      0.0000      0.0000      0.0000     -1.2330      0.0000
        40         0.0000      0.0000      0.0000     -0.1028      0.0000      0.0000
        41         0.0000      0.0000      0.0000      0.0000      0.0000      0.5606
        42         0.0000      0.0000      0.0000      0.0000      0.0000     -0.3193
        43         0.0000      0.0000      0.0000      0.0000     -0.2425      0.0000
        44        -0.7980     -0.7306     -0.8706      0.0000      0.0000      0.0000
        45        -0.7090      0.2693     -0.3009      0.0000      0.0000      0.0000
        46         0.0000      0.0000      0.0000      0.9161      0.0000      0.0000
        47         0.0000      0.0000      0.0000      0.0000      0.2457      0.0000
        48        -0.0812     -0.0290     -0.4402      0.0000      0.0000      0.0000
        49         0.0000      0.0000      0.0000      0.0000      0.0000      0.2663
        50         0.0000      0.0000      0.0000      0.0000     -0.6297      0.0000
        51         0.0000      0.0000      0.0000      0.6449      0.0000      0.0000
        52         0.0000      0.0000      0.0000      0.0000      0.3702      0.0000
        53         0.0000      0.0000      0.0000      0.0000      0.0000      0.3731
        54         0.0000      0.0000      0.0000     -0.8230      0.0000      0.0000
        55        -0.3719     -1.8381      0.1145      0.0000      0.0000      0.0000
        56         0.2838     -0.2017      0.5335      0.0000      0.0000      0.0000
        57         0.0000      0.0000      0.0000      0.0000      0.0000     -0.1310
        58         0.0000      0.0000      0.0000      0.0000     -0.0169      0.0000
        59        -0.2508     -0.9660     -0.8965      0.0000      0.0000      0.0000
        60         0.0000      0.0000      0.0000      0.0000      0.0000      0.3111
        61         0.0000      0.0000      0.0000      0.0561      0.0000      0.0000
        62         0.0000      0.0000      0.0000      0.0000     -0.2012      0.0000
        63         0.0000      0.0000      0.0000      0.0000      0.0000      0.8556
        64        -0.6578      0.9493     -0.9338      0.0000      0.0000      0.0000
        65         0.0000      0.0000      0.0000      0.1099      0.0000      0.0000
        66         0.4388      0.4311      1.0420      0.0000      0.0000      0.0000
        67         0.0000      0.0000      0.0000     -0.1741      0.0000      0.0000
        68         0.0000      0.0000      0.0000      0.0000     -0.7632      0.0000
        69         0.1976      0.2864     -0.0024      0.0000      0.0000      0.0000
        70         0.0000      0.0000      0.0000      0.0000      0.0000     -1.0546
        71         0.0000      0.0000      0.0000      0.0000      0.0000      0.1972
        72         0.0307      0.0557      0.4379      0.0000      0.0000      0.0000
        73         0.0000      0.0000      0.0000      0.0000      0.0000      0.4324
        74        -0.0826      0.7558     -0.7869      0.0000      0.0000      0.0000
        75         0.0000      0.0000      0.0000      0.0000      0.8390      0.0000
        76         0.1505     -0.7945     -0.2152      0.0000      0.0000      0.0000
        77         0.0000      0.0000      0.0000      0.5445      0.0000      0.0000
        78         0.0000      0.0000      0.0000      0.1288      0.0000      0.0000
        79         0.0000      0.0000      0.0000      0.0000      0.0000     -0.1745
        80         0.0000      0.0000      0.0000      0.0000      0.0000     -0.1308
        81         0.0000      0.0000      0.0000      0.0000     -0.2818      0.0000
        82         0.0000      0.0000      0.0000      0.0000      0.0000      0.2713
        83         0.0000      0.0000      0.0000     -0.4162      0.0000      0.0000
        84         0.0000      0.0000      0.0000      0.3050      0.0000      0.0000
        85         0.0318     -1.1627     -0.3087      0.0000      0.0000      0.0000
        86         0.0284      0.7737     -0.3411      0.0000      0.0000      0.0000
        87         0.0000      0.0000      0.0000      0.0000     -0.5878      0.0000
        88         0.0000      0.0000      0.0000      0.0000      0.0000     -0.5700
        89         0.0000      0.0000      0.0000      0.0000      0.0000     -1.3541
        90         0.0000      0.0000      0.0000     -0.2858      0.0000      0.0000
        91         0.7215     -3.4501     -1.2436      0.0000      0.0000      0.0000
        92         0.0000      0.0000      0.0000      0.0000      0.3579      0.0000
        93         0.0000      0.0000      0.0000      0.0000      0.5622      0.0000
        94         0.1753     -1.8247     -1.2007      0.0000      0.0000      0.0000
        95         0.0000      0.0000      0.0000      0.0000      0.0000     -0.5926
        96         0.0000      0.0000      0.0000      0.0000      0.0827      0.0000
        97         0.0000      0.0000      0.0000      0.0000      0.0000      1.6062
        98         0.0000      0.0000      0.0000     -0.7711      0.0000      0.0000
        99         0.0000      0.0000      0.0000      0.0000      0.0000      0.4785
       100        -0.3116      0.2196      0.5100      0.0000      0.0000      0.0000
       101        -0.7414     -1.9103      0.3369      0.0000      0.0000      0.0000
       102         0.0000      0.0000      0.0000      0.0000      0.0000      0.0537
       103         0.0000      0.0000      0.0000      0.0000      0.0000      0.5910
       104         0.0000      0.0000      0.0000     -1.0313      0.0000      0.0000
       105         0.1116      0.4995     -0.7514      0.0000      0.0000      0.0000
       106         0.0000      0.0000      0.0000      0.0000     -0.0737      0.0000
       107         0.0000      0.0000      0.0000     -0.8084      0.0000      0.0000
       108         0.0000      0.0000      0.0000      0.0000      0.0000      0.7520
       109         0.0000      0.0000      0.0000      0.0000      0.0000      1.1592
       110        -0.9076      0.8283     -1.7451      0.0000      0.0000      0.0000
       111         0.0000      0.0000      0.0000      0.0000     -0.4176      0.0000
       112        -0.0741     -0.6293      1.1112      0.0000      0.0000      0.0000
       113         0.0000      0.0000      0.0000      0.3623      0.0000      0.0000
       114         0.0000      0.0000      0.0000      0.1714      0.0000      0.0000
       115         0.0000      0.0000      0.0000      0.0000      0.0000     -1.0887
       116         0.0000      0.0000      0.0000      0.0000      0.5866      0.0000
       117         0.7415      0.5564     -0.5367      0.0000      0.0000      0.0000
       118         0.0000      0.0000      0.0000      0.0000      0.6795      0.0000
       119        -1.5075     -0.2423      1.6245      0.0000      0.0000      0.0000
       120         0.0000      0.0000      0.0000      0.0000      0.3125      0.0000
       121         0.0000      0.0000      0.0000     -1.2540      0.0000      0.0000
       122         0.0000      0.0000      0.0000      0.0000      0.3732      0.0000
       123        -0.2124     -0.9987      0.0412      0.0000      0.0000      0.0000
       124         0.0000      0.0000      0.0000      0.0000      0.0000      0.9159
       125         0.0000      0.0000      0.0000     -1.3717      0.0000      0.0000
       126         0.0000      0.0000      0.0000      0.0000      0.0000      0.3454
       127         0.0000      0.0000      0.0000      0.0000      0.0000      0.5855
       128         1.0082     -0.4896     -0.1240      0.0000      0.0000      0.0000
       129         0.0000      0.0000      0.0000      0.0000      0.6339      0.0000
       130        -0.4351     -0.2099     -0.0376      0.0000      0.0000      0.0000
       131         0.0000      0.0000      0.0000      0.0000      0.0000      0.3863
       132        -0.2450      0.6571      0.4277      0.0000      0.0000      0.0000
       133         0.0000      0.0000      0.0000      0.0000      0.0000      0.3536
       134         0.0000      0.0000      0.0000      0.0000     -0.0892      0.0000
       135         0.0000      0.0000      0.0000     -0.6576      0.0000      0.0000
       136        -1.2814     -0.6712     -0.9274      0.0000      0.0000      0.0000
       137         0.0000      0.0000      0.0000      0.0000      0.0000     -0.1932
       138         0.0000      0.0000      0.0000      0.2953      0.0000      0.0000
       139        -0.3539     -0.3125      0.4823      0.0000      0.0000      0.0000
       140         0.0000      0.0000      0.0000      0.0000      0.0000     -0.5850
       141         0.0000      0.0000      0.0000     -0.8228      0.0000      0.0000
       142         0.0000      0.0000      0.0000      0.0000     -0.0849      0.0000
       143         0.4769      0.8323      1.4528      0.0000      0.0000      0.0000
       144         0.0000      0.0000      0.0000      0.0000     -0.0786      0.0000
       145         0.0000      0.0000      0.0000     -0.2260      0.0000      0.0000
       146         0.0000      0.0000      0.0000      0.0000      0.0000      0.3028
       147         0.0000      0.0000      0.0000      0.0000     -0.5221      0.0000
       148        -0.7554     -1.5227     -0.1339      0.0000      0.0000      0.0000
       149         0.0000      0.0000      0.0000      0.0000      0.0000     -0.0039
       150         0.2796     -0.2731     -0.5952      0.0000      0.0000      0.0000
       151         0.0000      0.0000      0.0000      0.0000      0.0000     -0.3510
       152         0.0000      0.0000      0.0000      0.0000      0.1771      0.0000
       153         0.7419      1.5343      1.4220      0.0000      0.0000      0.0000
       154         0.4808      1.0189     -0.7861      0.0000      0.0000      0.0000
       155         0.0000      0.0000      0.0000      0.2234      0.0000      0.0000
       156         0.0000      0.0000      0.0000      0.0000      0.0000     -0.4813
       157         0.0000      0.0000      0.0000      0.0000      0.0000     -0.9929
       158         0.0000      0.0000      0.0000      0.0000      0.0357      0.0000
       159        -0.5614     -0.2502      2.1467      0.0000      0.0000      0.0000
       160         0.0000      0.0000      0.0000      0.0000      0.8089      0.0000
       161         0.3956     -0.0097      1.2030      0.0000      0.0000      0.0000
       162         0.0000      0.0000      0.0000      0.7575      0.0000      0.0000
       163         0.0000      0.0000      0.0000      0.0000      0.0000      0.0502
       164         0.0000      0.0000      0.0000      0.0000      0.0000     -0.1532
       165        -0.6240      1.0154     -2.0392      0.0000      0.0000      0.0000
       166         0.0000      0.0000      0.0000     -0.2699      0.0000      0.0000
       167         0.0000      0.0000      0.0000      0.0000      0.5672      0.0000
       168         0.0000      0.0000      0.0000      0.5437      0.0000      0.0000
       169         0.0000      0.0000      0.0000      0.0000      0.1317      0.0000
       170         0.7388     -1.0569     -0.7957      0.0000      0.0000      0.0000
       171         0.0000      0.0000      0.0000      0.0000      0.0000      0.2639
       172         0.0000      0.0000      0.0000      0.0000      0.0000     -0.7522
       173         0.0000      0.0000      0.0000     -0.3014      0.0000      0.0000
       174         0.0000      0.0000      0.0000      0.0000      0.5348      0.0000
       175         0.0574      0.1166     -0.4863      0.0000      0.0000      0.0000
       176         0.0000      0.0000      0.0000      0.0000      0.0000      0.1906
       177         0.2120      1.2984     -0.4551      0.0000      0.0000      0.0000
       178        -0.0237     -0.3025      0.5009      0.0000      0.0000      0.0000
       179         0.0000      0.0000      0.0000     -0.1066      0.0000      0.0000
       180         0.0000      0.0000      0.0000      0.0000      0.0497      0.0000
       181         0.0000      0.0000      0.0000      0.0000      0.0000      0.1441
       182         0.0000      0.0000      0.0000      0.3086      0.0000      0.0000
       183         0.0000      0.0000      0.0000      0.0000      0.1358      0.0000
       184         0.0758     -0.1062     -0.2331      0.0000      0.0000      0.0000
       185         0.0000      0.0000      0.0000      0.0000      0.0000      0.1496
       186        -0.2180     -1.5319     -1.6735      0.0000      0.0000      0.0000
       187         0.0000      0.0000      0.0000      0.0000     -0.0130      0.0000
       188        -0.5654     -1.0003     -0.4133      0.0000      0.0000      0.0000
       189         0.0000      0.0000      0.0000      0.1334      0.0000      0.0000
       190         0.0000      0.0000      0.0000      0.0000      0.0000      0.2183
       191         0.0000      0.0000      0.0000      0.0531      0.0000      0.0000
       192         0.3171      0.3328     -0.7976      0.0000      0.0000      0.0000
       193         0.0000      0.0000      0.0000     -0.1528      0.0000      0.0000
       194         0.0000      0.0000      0.0000      0.0000      0.0000     -0.2136
       195         0.0838     -0.3938     -0.5388      0.0000      0.0000      0.0000
       196         0.0000      0.0000      0.0000      0.0000      0.0000     -0.1743
       197         0.0000      0.0000      0.0000      0.0000      0.0000      0.3155
       198         0.0000      0.0000      0.0000      0.0000      0.2134      0.0000
       199         0.0000      0.0000      0.0000      0.4903      0.0000      0.0000
       200         0.3746     -0.1195      1.1797      0.0000      0.0000      0.0000
 <0|del|b> * <b|rxdel|0> + <0|del|b> * <b|delr+rdel|0>
 Rotatory Strengths (R) in cgs (10**-40 erg-esu-cm/Gauss)
       state          XX          YY          ZZ    R(velocity)    E-M Angle
         1         0.0000      0.0000      0.0000      0.0000       90.00
         2         0.0000      0.0000      0.0000      0.0000       90.00
         3         0.0000      0.0000      0.0000      0.0000       90.00
         4         0.0000      0.0000      0.0000      0.0000       90.00
         5         0.0000      0.0000      0.0000      0.0000       90.00
         6         0.0000      0.0000      0.0000      0.0000       90.00
         7         0.0000      0.0000      0.0000      0.0000       90.00
         8         0.0000      0.0000      0.0000      0.0000       90.00
         9         0.0000      0.0000      0.0000      0.0000       90.00
        10         0.0000      0.0000      0.0000      0.0000       90.00
        11         0.0000      0.0000      0.0000      0.0000       90.00
        12         0.0000      0.0000      0.0000      0.0000       90.00
        13         0.0000      0.0000      0.0000      0.0000       90.00
        14         0.0000      0.0000      0.0000      0.0000       90.00
        15         0.0000      0.0000      0.0000      0.0000       90.00
        16         0.0000      0.0000      0.0000      0.0000       90.00
        17         0.0000      0.0000      0.0000      0.0000       90.00
        18         0.0000      0.0000      0.0000      0.0000       90.00
        19         0.0000      0.0000      0.0000      0.0000       90.00
        20         0.0000      0.0000      0.0000      0.0000       90.00
        21         0.0000      0.0000      0.0000      0.0000       90.00
        22         0.0000      0.0000      0.0000      0.0000       90.00
        23         0.0000      0.0000      0.0000      0.0000       90.00
        24         0.0000      0.0000      0.0000      0.0000       90.00
        25         0.0000      0.0000      0.0000      0.0000       90.00
        26         0.0000      0.0000      0.0000      0.0000       90.00
        27         0.0000      0.0000      0.0000      0.0000       90.00
        28         0.0000      0.0000      0.0000      0.0000       90.00
        29         0.0000      0.0000      0.0000      0.0000       90.00
        30         0.0000      0.0000      0.0000      0.0000       90.00
        31         0.0000      0.0000      0.0000      0.0000       90.00
[...]
 ***********************************************************************
 CIS(D) Correction to the CiSingles state180
 ***********************************************************************
 Calling MO disk program.
 This state is a singlet. 
 DD1Dir will call FoFJK   1 times, MxPair=       156
 NAB=    78 NAA=     0 NBB=     0 NumPrc=  4.
 CIS     Exc. E:   1.28898321649     a.u.    35.07502 eV    35.34829 nm
 CIS(D) doubles : -0.145135265852    
 CIS(D) triples :  0.554179593222E-01
 CIS(D) Total   : -0.897173065299E-01        E(CIS(D))=  -191.322340325    
 CIS(D) Exc. E:   1.19926590996     a.u.    32.63369 eV    37.99270 nm
 ***********************************************************************
 CIS(D) Correction to the CiSingles state181
 ***********************************************************************
 Calling MO disk program.
 This state is a singlet. 
 DD1Dir will call FoFJK   1 times, MxPair=       156
 NAB=    78 NAA=     0 NBB=     0 NumPrc=  4.
 CIS     Exc. E:   1.28947944094     a.u.    35.08852 eV    35.33469 nm
 CIS(D) doubles : -0.193790995050    
 CIS(D) triples :  0.634401813771E-01
 CIS(D) Total   : -0.130350813673            E(CIS(D))=  -191.362477608    
 CIS(D) Exc. E:   1.15912862727     a.u.    31.54149 eV    39.30828 nm
 ***********************************************************************
 CIS(D) Correction to the CiSingles state182
 ***********************************************************************
 Calling MO disk program.
 This state is a singlet. 
 DD1Dir will call FoFJK   1 times, MxPair=       156
 NAB=    78 NAA=     0 NBB=     0 NumPrc=  4.
 CIS     Exc. E:   1.28982483550     a.u.    35.09792 eV    35.32522 nm
 CIS(D) doubles : -0.153550107763    
 CIS(D) triples :  0.640012080403E-01
 CIS(D) Total   : -0.895488997229E-01        E(CIS(D))=  -191.321330299    
 CIS(D) Exc. E:   1.20027593578     a.u.    32.66117 eV    37.96073 nm
 ***********************************************************************
 CIS(D) Correction to the CiSingles state183
 ***********************************************************************
 Calling MO disk program.
 This state is a singlet. 
 DD1Dir will call FoFJK   1 times, MxPair=       156
 NAB=    78 NAA=     0 NBB=     0 NumPrc=  4.
 CIS     Exc. E:   1.29753354846     a.u.    35.30768 eV    35.11536 nm
 CIS(D) doubles : -0.143295123457    
 CIS(D) triples :  0.534684979149E-01
 CIS(D) Total   : -0.898266255417E-01        E(CIS(D))=  -191.313899312    
 CIS(D) Exc. E:   1.20770692291     a.u.    32.86338 eV    37.72716 nm
 ***********************************************************************
 CIS(D) Correction to the CiSingles state184
 ***********************************************************************
 Calling MO disk program.
 This state is a singlet. 
 DD1Dir will call FoFJK   1 times, MxPair=       156
 NAB=    78 NAA=     0 NBB=     0 NumPrc=  4.
 CIS     Exc. E:   1.30309511780     a.u.    35.45902 eV    34.96548 nm
 CIS(D) doubles : -0.198359398260    
 CIS(D) triples :  0.653883242161E-01
 CIS(D) Total   : -0.132971074044            E(CIS(D))=  -191.351482191    
 CIS(D) Exc. E:   1.17012404376     a.u.    31.84069 eV    38.93891 nm
 ***********************************************************************
 CIS(D) Correction to the CiSingles state185
 ***********************************************************************
 Calling MO disk program.
 This state is a singlet. 
 DD1Dir will call FoFJK   1 times, MxPair=       156
 NAB=    78 NAA=     0 NBB=     0 NumPrc=  4.
 CIS     Exc. E:   1.30496504747     a.u.    35.50990 eV    34.91538 nm
 CIS(D) doubles : -0.166906545783    
 CIS(D) triples :  0.578831748712E-01
 CIS(D) Total   : -0.109023370912            E(CIS(D))=  -191.325664558    
 CIS(D) Exc. E:   1.19594167656     a.u.    32.54323 eV    38.09831 nm
 ***********************************************************************
 CIS(D) Correction to the CiSingles state186
 ***********************************************************************
 Calling MO disk program.
 This state is a singlet. 
 DD1Dir will call FoFJK   1 times, MxPair=       156
 NAB=    78 NAA=     0 NBB=     0 NumPrc=  4.
 CIS     Exc. E:   1.30509945439     a.u.    35.51356 eV    34.91179 nm
 CIS(D) doubles : -0.169905958119    
 CIS(D) triples :  0.625531632615E-01
 CIS(D) Total   : -0.107352794857            E(CIS(D))=  -191.323859575    
 CIS(D) Exc. E:   1.19774665953     a.u.    32.59234 eV    38.04089 nm
 ***********************************************************************
 CIS(D) Correction to the CiSingles state187
 ***********************************************************************
 Calling MO disk program.
 This state is a singlet. 
 DD1Dir will call FoFJK   1 times, MxPair=       156
 NAB=    78 NAA=     0 NBB=     0 NumPrc=  4.
 CIS     Exc. E:   1.30668627799     a.u.    35.55674 eV    34.86939 nm
 CIS(D) doubles : -0.180778402342    
 CIS(D) triples :  0.663271762572E-01
 CIS(D) Total   : -0.114451226085            E(CIS(D))=  -191.329371183    
 CIS(D) Exc. E:   1.19223505190     a.u.    32.44237 eV    38.21675 nm
 ***********************************************************************
 CIS(D) Correction to the CiSingles state188
 ***********************************************************************
 Calling MO disk program.
 This state is a singlet. 
 DD1Dir will call FoFJK   1 times, MxPair=       156
 NAB=    78 NAA=     0 NBB=     0 NumPrc=  4.
 CIS     Exc. E:   1.31282367722     a.u.    35.72375 eV    34.70638 nm
 CIS(D) doubles : -0.285256168969    
 CIS(D) triples :  0.633105150916E-01
 CIS(D) Total   : -0.221945653877            E(CIS(D))=  -191.430728212    
 CIS(D) Exc. E:   1.09087802334     a.u.    29.68430 eV    41.76760 nm
 ***********************************************************************
 CIS(D) Correction to the CiSingles state189
 ***********************************************************************
 Calling MO disk program.
 This state is a singlet. 
 DD1Dir will call FoFJK   1 times, MxPair=       156
 NAB=    78 NAA=     0 NBB=     0 NumPrc=  4.
 CIS     Exc. E:   1.31331115178     a.u.    35.73701 eV    34.69349 nm
 CIS(D) doubles : -0.205988846410    
 CIS(D) triples :  0.632823776347E-01
 CIS(D) Total   : -0.142706468775            E(CIS(D))=  -191.351001552    
 CIS(D) Exc. E:   1.17060468300     a.u.    31.85377 eV    38.92292 nm
 ***********************************************************************
 CIS(D) Correction to the CiSingles state190
 ***********************************************************************
 Calling MO disk program.
 This state is a singlet. 
 DD1Dir will call FoFJK   1 times, MxPair=       156
 NAB=    78 NAA=     0 NBB=     0 NumPrc=  4.
 CIS     Exc. E:   1.31725537669     a.u.    35.84434 eV    34.58961 nm
 CIS(D) doubles : -0.186808771584    
 CIS(D) triples :  0.611969530815E-01
 CIS(D) Total   : -0.125611818503            E(CIS(D))=  -191.329962677    
 CIS(D) Exc. E:   1.19164355819     a.u.    32.42627 eV    38.23572 nm
 ***********************************************************************
 CIS(D) Correction to the CiSingles state191
 ***********************************************************************
 Calling MO disk program.
 This state is a singlet. 
 DD1Dir will call FoFJK   1 times, MxPair=       156
 NAB=    78 NAA=     0 NBB=     0 NumPrc=  4.
 CIS     Exc. E:   1.31763204552     a.u.    35.85459 eV    34.57972 nm
 CIS(D) doubles : -0.189064090017    
 CIS(D) triples :  0.579469181976E-01
 CIS(D) Total   : -0.131117171819            E(CIS(D))=  -191.335091361    
 CIS(D) Exc. E:   1.18651487370     a.u.    32.28671 eV    38.40100 nm
 ***********************************************************************
 CIS(D) Correction to the CiSingles state192
 ***********************************************************************
 Calling MO disk program.
 This state is a singlet. 
 DD1Dir will call FoFJK   1 times, MxPair=       156
 NAB=    78 NAA=     0 NBB=     0 NumPrc=  4.
 CIS     Exc. E:   1.32142861275     a.u.    35.95790 eV    34.48037 nm
 CIS(D) doubles : -0.916240753521E-01
 CIS(D) triples :  0.638618765654E-01
 CIS(D) Total   : -0.277621987868E-01        E(CIS(D))=  -191.227939821    
 CIS(D) Exc. E:   1.29366641396     a.u.    35.20245 eV    35.22033 nm
 ***********************************************************************
 CIS(D) Correction to the CiSingles state193
 ***********************************************************************
 Calling MO disk program.
 This state is a singlet. 
 DD1Dir will call FoFJK   1 times, MxPair=       156
 NAB=    78 NAA=     0 NBB=     0 NumPrc=  4.
 CIS     Exc. E:   1.33256966761     a.u.    36.26106 eV    34.19210 nm
 CIS(D) doubles : -0.140484416480    
 CIS(D) triples :  0.528242892512E-01
 CIS(D) Total   : -0.876601272288E-01        E(CIS(D))=  -191.276696695    
 CIS(D) Exc. E:   1.24490954038     a.u.    33.87571 eV    36.59973 nm
 ***********************************************************************
 CIS(D) Correction to the CiSingles state194
 ***********************************************************************
 Calling MO disk program.
 This state is a singlet. 
 DD1Dir will call FoFJK   1 times, MxPair=       156
 NAB=    78 NAA=     0 NBB=     0 NumPrc=  4.
 CIS     Exc. E:   1.33383163633     a.u.    36.29540 eV    34.15975 nm
 CIS(D) doubles : -0.180087889547    
 CIS(D) triples :  0.647265378191E-01
 CIS(D) Total   : -0.115361351728            E(CIS(D))=  -191.303135950    
 CIS(D) Exc. E:   1.21847028460     a.u.    33.15626 eV    37.39390 nm
 ***********************************************************************
 CIS(D) Correction to the CiSingles state195
 ***********************************************************************
 Calling MO disk program.
 This state is a singlet. 
 DD1Dir will call FoFJK   1 times, MxPair=       156
 NAB=    78 NAA=     0 NBB=     0 NumPrc=  4.
 CIS     Exc. E:   1.33709728108     a.u.    36.38427 eV    34.07632 nm
 CIS(D) doubles : -0.161939975573    
 CIS(D) triples :  0.704896382612E-01
 CIS(D) Total   : -0.914503373114E-01        E(CIS(D))=  -191.275959291    
 CIS(D) Exc. E:   1.24564694377     a.u.    33.89578 eV    36.57806 nm
 ***********************************************************************
 CIS(D) Correction to the CiSingles state196
 ***********************************************************************
 Calling MO disk program.
 This state is a singlet. 
 DD1Dir will call FoFJK   1 times, MxPair=       156
 NAB=    78 NAA=     0 NBB=     0 NumPrc=  4.
 CIS     Exc. E:   1.33838636335     a.u.    36.41935 eV    34.04350 nm
 CIS(D) doubles : -0.175378689035    
 CIS(D) triples :  0.570024396722E-01
 CIS(D) Total   : -0.118376249363            E(CIS(D))=  -191.301596121    
 CIS(D) Exc. E:   1.22001011399     a.u.    33.19816 eV    37.34670 nm
 ***********************************************************************
 CIS(D) Correction to the CiSingles state197
 ***********************************************************************
 Calling MO disk program.
 This state is a singlet. 
 DD1Dir will call FoFJK   1 times, MxPair=       156
 NAB=    78 NAA=     0 NBB=     0 NumPrc=  4.
 CIS     Exc. E:   1.33957967508     a.u.    36.45182 eV    34.01317 nm
 CIS(D) doubles : -0.178705136587    
 CIS(D) triples :  0.571926092283E-01
 CIS(D) Total   : -0.121512527359            E(CIS(D))=  -191.303539087    
 CIS(D) Exc. E:   1.21806714772     a.u.    33.14529 eV    37.40627 nm
 ***********************************************************************
 CIS(D) Correction to the CiSingles state198
 ***********************************************************************
 Calling MO disk program.
 This state is a singlet. 
 DD1Dir will call FoFJK   1 times, MxPair=       156
 NAB=    78 NAA=     0 NBB=     0 NumPrc=  4.
 CIS     Exc. E:   1.34489344102     a.u.    36.59641 eV    33.87878 nm
 CIS(D) doubles : -0.122292042159    
 CIS(D) triples :  0.501018183530E-01
 CIS(D) Total   : -0.721902238058E-01        E(CIS(D))=  -191.248903018    
 CIS(D) Exc. E:   1.27270321722     a.u.    34.63202 eV    35.80045 nm
 ***********************************************************************
 CIS(D) Correction to the CiSingles state199
 ***********************************************************************
 Calling MO disk program.
 This state is a singlet. 
 DD1Dir will call FoFJK   1 times, MxPair=       156
 NAB=    78 NAA=     0 NBB=     0 NumPrc=  4.
 CIS     Exc. E:   1.34611265634     a.u.    36.62959 eV    33.84810 nm
 CIS(D) doubles : -0.140356063479    
 CIS(D) triples :  0.540447872440E-01
 CIS(D) Total   : -0.863112762349E-01        E(CIS(D))=  -191.261804855    
 CIS(D) Exc. E:   1.25980138011     a.u.    34.28094 eV    36.16709 nm
 ***********************************************************************
 CIS(D) Correction to the CiSingles state200
 ***********************************************************************
 Calling MO disk program.
 This state is a singlet. 
 DD1Dir will call FoFJK   1 times, MxPair=       156
 NAB=    78 NAA=     0 NBB=     0 NumPrc=  4.
 CIS     Exc. E:   1.34714259799     a.u.    36.65761 eV    33.82222 nm
 CIS(D) doubles : -0.186783152323    
 CIS(D) triples :  0.621967912999E-01
 CIS(D) Total   : -0.124586361023            E(CIS(D))=  -191.299049998    
 CIS(D) Exc. E:   1.22255623697     a.u.    33.26745 eV    37.26892 nm

 **********************************************************************

            Population analysis using the SCF density.

 **********************************************************************

 Orbital symmetries:
       Occupied  (A1) (A1) (B2) (A1) (A1) (A1) (B2) (A1) (B2) (A1)
                 (B1) (A1) (A2) (B2) (B1) (B2)
       Virtual   (B1) (A1) (A1) (B2) (B1) (A2) (B2) (A1) (B2) (A1)
                 (A1) (B1) (A2) (A1) (B2) (B1) (B2) (A1) (B2) (A1)
                 (A1) (B1) (A2) (B2) (A1) (A1) (B2) (B1) (B2) (A1)
                 (A2) (B2) (B1) (A1) (A1) (B2) (A2) (B2) (A1) (B1)
                 (A1) (A2) (A1) (B2) (B1) (B2) (A2) (A1) (B1) (A1)
                 (A1) (B2) (A1) (A1) (B2) (A1)
 The electronic state is 1-A1.
 Alpha  occ. eigenvalues --  -20.55166 -11.32986 -11.23027 -11.23025  -1.39711
 Alpha  occ. eigenvalues --   -1.03997  -0.96819  -0.73953  -0.64764  -0.63592
 Alpha  occ. eigenvalues --   -0.62444  -0.56266  -0.56132  -0.53732  -0.49029
 Alpha  occ. eigenvalues --   -0.40693
 Alpha virt. eigenvalues --    0.16866   0.22520   0.28547   0.29594   0.31638
 Alpha virt. eigenvalues --    0.32620   0.33626   0.36815   0.46737   0.49189
 Alpha virt. eigenvalues --    0.69875   0.75536   0.76261   0.79225   0.81387
 Alpha virt. eigenvalues --    0.91382   0.95004   0.99383   0.99773   1.01863
 Alpha virt. eigenvalues --    1.11146   1.11987   1.16102   1.16824   1.20403
 Alpha virt. eigenvalues --    1.21860   1.23502   1.31970   1.37819   1.40282
 Alpha virt. eigenvalues --    1.66904   1.67977   1.70908   1.84138   2.05173
 Alpha virt. eigenvalues --    2.08191   2.08206   2.11812   2.21377   2.24865
 Alpha virt. eigenvalues --    2.35256   2.40208   2.46401   2.54084   2.55512
 Alpha virt. eigenvalues --    2.70768   2.76204   2.83113   2.96292   3.08898
 Alpha virt. eigenvalues --    3.36130   3.36862   4.38428   4.53049   4.70253
 Alpha virt. eigenvalues --    4.87043
          Condensed to atoms (all electrons):
               1          2          3          4          5          6
     1  O    8.057855   0.598670  -0.079352  -0.079352   0.004879   0.001402
     2  C    0.598670   4.384681   0.336265   0.336265  -0.031889  -0.029127
     3  C   -0.079352   0.336265   5.307644  -0.121803   0.379719   0.373343
     4  C   -0.079352   0.336265  -0.121803   5.307644   0.004711   0.002402
     5  H    0.004879  -0.031889   0.379719   0.004711   0.472783  -0.018998
     6  H    0.001402  -0.029127   0.373343   0.002402  -0.018998   0.514677
     7  H    0.001402  -0.029127   0.373343   0.002402  -0.018998  -0.026227
     8  H    0.004879  -0.031889   0.004711   0.379719  -0.000106  -0.000113
     9  H    0.001402  -0.029127   0.002402   0.373343  -0.000113   0.000295
    10  H    0.001402  -0.029127   0.002402   0.373343  -0.000113  -0.000125
               7          8          9         10
     1  O    0.001402   0.004879   0.001402   0.001402
     2  C   -0.029127  -0.031889  -0.029127  -0.029127
     3  C    0.373343   0.004711   0.002402   0.002402
     4  C    0.002402   0.379719   0.373343   0.373343
     5  H   -0.018998  -0.000106  -0.000113  -0.000113
     6  H   -0.026227  -0.000113   0.000295  -0.000125
     7  H    0.514677  -0.000113  -0.000125   0.000295
     8  H   -0.000113   0.472783  -0.018998  -0.018998
     9  H   -0.000125  -0.018998   0.514677  -0.026227
    10  H    0.000295  -0.018998  -0.026227   0.514677
 Mulliken charges:
               1
     1  O   -0.513188
     2  C    0.524404
     3  C   -0.578675
     4  C   -0.578675
     5  H    0.208126
     6  H    0.182471
     7  H    0.182471
     8  H    0.208126
     9  H    0.182471
    10  H    0.182471
 Sum of Mulliken charges =   0.00000
 Mulliken charges with hydrogens summed into heavy atoms:
               1
     1  O   -0.513188
     2  C    0.524404
     3  C   -0.005608
     4  C   -0.005608
 Electronic spatial extent (au):  <R**2>=            290.5709
 Charge=              0.0000 electrons
 Dipole moment (field-independent basis, Debye):
    X=              0.0000    Y=              0.0000    Z=             -3.1189  Tot=              3.1189
 Quadrupole moment (field-independent basis, Debye-Ang):
   XX=            -24.1260   YY=            -23.6983   ZZ=            -29.1228
   XY=              0.0000   XZ=              0.0000   YZ=              0.0000
 Traceless Quadrupole moment (field-independent basis, Debye-Ang):
   XX=              1.5230   YY=              1.9507   ZZ=             -3.4737
   XY=              0.0000   XZ=              0.0000   YZ=              0.0000
 Octapole moment (field-independent basis, Debye-Ang**2):
  XXX=              0.0000  YYY=              0.0000  ZZZ=             -2.4379  XYY=              0.0000
  XXY=              0.0000  XXZ=              0.2484  XZZ=              0.0000  YZZ=              0.0000
  YYZ=              2.3612  XYZ=              0.0000
 Hexadecapole moment (field-independent basis, Debye-Ang**3):
 XXXX=            -35.2586 YYYY=           -194.0953 ZZZZ=           -147.9856 XXXY=              0.0000
 XXXZ=              0.0000 YYYX=              0.0000 YYYZ=              0.0000 ZZZX=              0.0000
 ZZZY=              0.0000 XXYY=            -39.6153 XXZZ=            -26.5281 YYZZ=            -56.6408
 XXYZ=              0.0000 YYXZ=              0.0000 ZZXY=              0.0000
 N-N= 1.201507549271D+02 E-N=-6.900342240381D+02  KE= 1.917149495536D+02
 Symmetry A1   KE= 1.401820464159D+02
 Symmetry A2   KE= 2.000126372760D+00
 Symmetry B1   KE= 5.417942820461D+00
 Symmetry B2   KE= 4.411483394444D+01
 1\1\GINC-IBM3650-40\SP\RCIS-FC\6-31G(d)\C3H6O1\SHENZT\17-Dec-2015\0\\#
  CIS(D,NStates=200)/6-31g(d) Geom=Check Guess=Read\\Acetone: Transitio
 n electronic dipole moments between S0 and excited states\\0,1\O,0,0.,
 0.,1.3724727102\C,0,0.,0.,0.18034784\C,0,0.,1.2884173882,-0.6144986683
 \C,0,0.,-1.2884173882,-0.6144986683\H,0,0.,2.1337810533,0.0594058568\H
 ,0,-0.8744076012,1.3359568005,-1.2572787317\H,0,0.8744076012,1.3359568
 005,-1.2572787317\H,0,0.,-2.1337810533,0.0594058568\H,0,-0.8744076012,
 -1.3359568005,-1.2572787317\H,0,0.8744076012,-1.3359568005,-1.25727873
 17\\Version=EM64L-G09RevD.01\State=1-A1\HF=-191.9622363\MP2=-192.52160
 62\RMSD=5.678e-10\PG=C02V [C2(C1O1),SGV(C2H2),X(H4)]\\@


 A MAN IS EXACTLY AS GREAT AS THE TIDE SURGING
 BENEATH HIM.      - BISMARCK
 Job cpu time:       0 days  0 hours 10 minutes 19.8 seconds.
 File lengths (MBytes):  RWF=    246 Int=      0 D2E=      0 Chk=     85 Scr=      1
 Normal termination of Gaussian 09 at Thu Dec 17 20:55:59 2015.
