 Entering Gaussian System, Link 0=g09
 Input=R6G_td_opt.com
 Output=R6G_td_opt.log
 Initial command:
 /opt/g09/l1.exe "/home/tmp/Gau-15913.inp" -scrdir="/home/tmp/"
 Entering Link 1 = /opt/g09/l1.exe PID=     15914.
  
 Copyright (c) 1988,1990,1992,1993,1995,1998,2003,2009,2013,
            Gaussian, Inc.  All Rights Reserved.
  
 This is part of the Gaussian(R) 09 program.  It is based on
 the Gaussian(R) 03 system (copyright 2003, Gaussian, Inc.),
 the Gaussian(R) 98 system (copyright 1998, Gaussian, Inc.),
 the Gaussian(R) 94 system (copyright 1995, Gaussian, Inc.),
 the Gaussian 92(TM) system (copyright 1992, Gaussian, Inc.),
 the Gaussian 90(TM) system (copyright 1990, Gaussian, Inc.),
 the Gaussian 88(TM) system (copyright 1988, Gaussian, Inc.),
 the Gaussian 86(TM) system (copyright 1986, Carnegie Mellon
 University), and the Gaussian 82(TM) system (copyright 1983,
 Carnegie Mellon University). Gaussian is a federally registered
 trademark of Gaussian, Inc.
  
 This software contains proprietary and confidential information,
 including trade secrets, belonging to Gaussian, Inc.
  
 This software is provided under written license and may be
 used, copied, transmitted, or stored only in accord with that
 written license.
  
 The following legend is applicable only to US Government
 contracts under FAR:
  
                    RESTRICTED RIGHTS LEGEND
  
 Use, reproduction and disclosure by the US Government is
 subject to restrictions as set forth in subparagraphs (a)
 and (c) of the Commercial Computer Software - Restricted
 Rights clause in FAR 52.227-19.
  
 Gaussian, Inc.
 340 Quinnipiac St., Bldg. 40, Wallingford CT 06492
  
  
 ---------------------------------------------------------------
 Warning -- This program may not be used in any manner that
 competes with the business of Gaussian, Inc. or will provide
 assistance to any competitor of Gaussian, Inc.  The licensee
 of this program is prohibited from giving any competitor of
 Gaussian, Inc. access to this program.  By using this program,
 the user acknowledges that Gaussian, Inc. is engaged in the
 business of creating and licensing software in the field of
 computational chemistry and represents and warrants to the
 licensee that it is not a competitor of Gaussian, Inc. and that
 it will not use this program in any manner prohibited above.
 ---------------------------------------------------------------
  

 Cite this work as:
 Gaussian 09, Revision D.01,
 M. J. Frisch, G. W. Trucks, H. B. Schlegel, G. E. Scuseria, 
 M. A. Robb, J. R. Cheeseman, G. Scalmani, V. Barone, B. Mennucci, 
 G. A. Petersson, H. Nakatsuji, M. Caricato, X. Li, H. P. Hratchian, 
 A. F. Izmaylov, J. Bloino, G. Zheng, J. L. Sonnenberg, M. Hada, 
 M. Ehara, K. Toyota, R. Fukuda, J. Hasegawa, M. Ishida, T. Nakajima, 
 Y. Honda, O. Kitao, H. Nakai, T. Vreven, J. A. Montgomery, Jr., 
 J. E. Peralta, F. Ogliaro, M. Bearpark, J. J. Heyd, E. Brothers, 
 K. N. Kudin, V. N. Staroverov, T. Keith, R. Kobayashi, J. Normand, 
 K. Raghavachari, A. Rendell, J. C. Burant, S. S. Iyengar, J. Tomasi, 
 M. Cossi, N. Rega, J. M. Millam, M. Klene, J. E. Knox, J. B. Cross, 
 V. Bakken, C. Adamo, J. Jaramillo, R. Gomperts, R. E. Stratmann, 
 O. Yazyev, A. J. Austin, R. Cammi, C. Pomelli, J. W. Ochterski, 
 R. L. Martin, K. Morokuma, V. G. Zakrzewski, G. A. Voth, 
 P. Salvador, J. J. Dannenberg, S. Dapprich, A. D. Daniels, 
 O. Farkas, J. B. Foresman, J. V. Ortiz, J. Cioslowski, 
 and D. J. Fox, Gaussian, Inc., Wallingford CT, 2013.
 
 ******************************************
 Gaussian 09:  EM64L-G09RevD.01 24-Apr-2013
                28-Oct-2019 
 ******************************************
 %nprocshared=8
 Will use up to    8 processors via shared memory.
 %mem=10GB
 %chk=R6G.chk
 ----------------------------------------------------------------------
 # int=ultrafine opt=tight b3lyp/6-311g* td(nstates=5) nosymm guess=rea
 d
 ----------------------------------------------------------------------
 1/7=10,14=-1,18=20,19=15,26=4,38=1/1,3;
 2/9=110,12=2,15=1,17=6,18=5,40=1/2;
 3/5=4,6=6,7=1,11=9,16=1,25=1,30=1,71=1,74=-5,75=-5,116=-2/1,2,8,3;
 4/5=1/1;
 5/5=2,38=6/2;
 8/6=1,10=2,108=5/1;
 9/15=2,41=5,42=1,70=2/14;
 10/5=4,31=1/2;
 6/7=2,8=2,9=2,10=2/1;
 7/12=6,13=5,30=1/1,2,3,16;
 1/7=10,14=-1,18=20,19=15,26=4/3(2);
 2/9=110,15=1/2;
 99//99;
 2/9=110,15=1/2;
 3/5=4,6=6,7=1,11=9,16=1,25=1,30=1,71=1,74=-5,75=-5/1,2,8,3;
 4/5=5,16=3,69=1/1;
 5/5=2,38=5/2;
 8/6=1,10=2,108=5/1;
 9/15=2,41=5,42=1,49=4,70=2/14;
 10/5=4,31=1/2;
 7/12=6,13=5,30=1/1,2,3,16;
 1/7=10,14=-1,18=20,19=15,26=4/3(-8);
 2/9=110,15=1/2;
 6/7=2,8=2,9=2,10=2/1;
 99//99;
 ----------------
 R6G S1 S2 and S3
 ----------------
 Symbolic Z-matrix:
 Charge =  1 Multiplicity = 1
 6                    0     3.60186  -0.61517   0.42075 
 6                    0     3.48656  -1.96522  -0.08259 
 6                    0     2.19947  -2.47899  -0.35599 
 6                    0     1.07004  -1.73148  -0.12186 
 6                    0     1.14094  -0.41903   0.41183 
 6                    0     2.44519   0.08844   0.65408 
 8                    0    -0.12621  -2.30826  -0.40716 
 6                    0    -1.28661  -1.64357  -0.16884 
 6                    0    -1.28075  -0.32877   0.36397 
 6                    0    -0.04957   0.30157   0.62917 
 6                    0    -2.45826  -2.30509  -0.44922 
 6                    0    -3.71347  -1.69655  -0.22635 
 6                    0    -3.74793  -0.34131   0.27522 
 6                    0    -2.55234   0.27435   0.5558 
 6                    0    -0.01098   1.6649    1.24239 
 6                    0     0.04272   2.85216   0.48481 
 6                    0     0.07371   4.08766   1.14235 
 6                    0     0.05288   4.15665   2.53044 
 6                    0    -0.00014   2.98443   3.27946 
 6                    0    -0.03201   1.74849   2.63774 
 6                    0     0.06571   2.77608  -1.0094 
 8                    0     0.09995   3.98704  -1.57947 
 6                    0     0.12512   4.04391  -3.03523 
 8                    0     0.04984   1.7331   -1.62617 
 6                    0     1.54381   3.95132  -3.56512 
 6                    0     4.92548   0.08443   0.62798 
 6                    0    -5.02287   0.45518   0.4316 
 7                    0     4.53866  -2.78444  -0.3513 
 6                    0     5.91915  -2.76364   0.15545 
 6                    0     6.62119  -4.05971  -0.23267 
 7                    0    -4.81183  -2.43553  -0.53837 
 6                    0    -6.20692  -2.31003  -0.09011 
 6                    0    -6.98781  -3.54977  -0.51028 
 1                    0     2.08277  -3.48542  -0.74324 
 1                    0     2.52688   1.10232   1.02736 
 1                    0    -2.40151  -3.31777  -0.83357 
 1                    0    -2.5733    1.29166   0.92806 
 1                    0     0.11496   4.99195   0.5497 
 1                    0     0.07771   5.12135   3.02471 
 1                    0    -0.01701   3.02707   4.3631 
 1                    0    -0.07382   0.837     3.22446 
 1                    0    -0.33148   5.00581  -3.26479 
 1                    0    -0.50332   3.24201  -3.42182 
 1                    0     1.54043   4.08429  -4.65031 
 1                    0     1.98219   2.97615  -3.34657 
 1                    0     2.17559   4.72966  -3.13162 
 1                    0     5.51387   0.1112   -0.29261 
 1                    0     4.75442   1.11834   0.92905 
 1                    0     5.54077  -0.3779    1.40151 
 1                    0    -4.7873    1.47317   0.74316 
 1                    0    -5.56972   0.52676  -0.51192 
 1                    0    -5.70185   0.03964   1.17791 
 1                    0     4.27109  -3.6794   -0.73544 
 1                    0     5.91418  -2.65581   1.24434 
 1                    0     6.4631   -1.91587  -0.26156 
 1                    0     7.65146  -4.05007   0.12626 
 1                    0     6.64931  -4.18515  -1.31832 
 1                    0     6.12713  -4.93124   0.20626 
 1                    0    -4.59659  -3.34836  -0.91323 
 1                    0    -6.6672   -1.42393  -0.52769 
 1                    0    -6.23961  -2.20185   0.99826 
 1                    0    -8.02856  -3.46209  -0.1948 
 1                    0    -6.57977  -4.4557   -0.05299 
 1                    0    -6.97975  -3.67371  -1.59643 
 

 GradGradGradGradGradGradGradGradGradGradGradGradGradGradGradGradGradGrad
 Berny optimization.
 Initialization pass.
                           ----------------------------
                           !    Initial Parameters    !
                           ! (Angstroms and Degrees)  !
 --------------------------                            --------------------------
 ! Name  Definition              Value          Derivative Info.                !
 --------------------------------------------------------------------------------
 ! R1    R(1,2)                  1.4454         estimate D2E/DX2                !
 ! R2    R(1,6)                  1.3738         estimate D2E/DX2                !
 ! R3    R(1,26)                 1.5114         estimate D2E/DX2                !
 ! R4    R(2,3)                  1.4126         estimate D2E/DX2                !
 ! R5    R(2,28)                 1.3602         estimate D2E/DX2                !
 ! R6    R(3,4)                  1.3745         estimate D2E/DX2                !
 ! R7    R(3,34)                 1.0847         estimate D2E/DX2                !
 ! R8    R(4,5)                  1.4186         estimate D2E/DX2                !
 ! R9    R(4,7)                  1.3583         estimate D2E/DX2                !
 ! R10   R(5,6)                  1.4203         estimate D2E/DX2                !
 ! R11   R(5,10)                 1.4085         estimate D2E/DX2                !
 ! R12   R(6,35)                 1.0835         estimate D2E/DX2                !
 ! R13   R(7,8)                  1.3584         estimate D2E/DX2                !
 ! R14   R(8,9)                  1.4187         estimate D2E/DX2                !
 ! R15   R(8,11)                 1.3744         estimate D2E/DX2                !
 ! R16   R(9,10)                 1.4084         estimate D2E/DX2                !
 ! R17   R(9,14)                 1.4204         estimate D2E/DX2                !
 ! R18   R(10,15)                1.4954         estimate D2E/DX2                !
 ! R19   R(11,12)                1.4126         estimate D2E/DX2                !
 ! R20   R(11,36)                1.0847         estimate D2E/DX2                !
 ! R21   R(12,13)                1.4455         estimate D2E/DX2                !
 ! R22   R(12,31)                1.3601         estimate D2E/DX2                !
 ! R23   R(13,14)                1.3738         estimate D2E/DX2                !
 ! R24   R(13,27)                1.5114         estimate D2E/DX2                !
 ! R25   R(14,37)                1.0835         estimate D2E/DX2                !
 ! R26   R(15,16)                1.4094         estimate D2E/DX2                !
 ! R27   R(15,20)                1.398          estimate D2E/DX2                !
 ! R28   R(16,17)                1.3999         estimate D2E/DX2                !
 ! R29   R(16,21)                1.4963         estimate D2E/DX2                !
 ! R30   R(17,18)                1.39           estimate D2E/DX2                !
 ! R31   R(17,38)                1.082          estimate D2E/DX2                !
 ! R32   R(18,19)                1.3921         estimate D2E/DX2                !
 ! R33   R(18,39)                1.0842         estimate D2E/DX2                !
 ! R34   R(19,20)                1.393          estimate D2E/DX2                !
 ! R35   R(19,40)                1.0846         estimate D2E/DX2                !
 ! R36   R(20,41)                1.0848         estimate D2E/DX2                !
 ! R37   R(21,22)                1.3389         estimate D2E/DX2                !
 ! R38   R(21,24)                1.2118         estimate D2E/DX2                !
 ! R39   R(22,23)                1.4571         estimate D2E/DX2                !
 ! R40   R(23,25)                1.5173         estimate D2E/DX2                !
 ! R41   R(23,42)                1.0892         estimate D2E/DX2                !
 ! R42   R(23,43)                1.0897         estimate D2E/DX2                !
 ! R43   R(25,44)                1.0933         estimate D2E/DX2                !
 ! R44   R(25,45)                1.0913         estimate D2E/DX2                !
 ! R45   R(25,46)                1.0922         estimate D2E/DX2                !
 ! R46   R(26,47)                1.0929         estimate D2E/DX2                !
 ! R47   R(26,48)                1.0904         estimate D2E/DX2                !
 ! R48   R(26,49)                1.0912         estimate D2E/DX2                !
 ! R49   R(27,50)                1.0903         estimate D2E/DX2                !
 ! R50   R(27,51)                1.0929         estimate D2E/DX2                !
 ! R51   R(27,52)                1.0912         estimate D2E/DX2                !
 ! R52   R(28,29)                1.4707         estimate D2E/DX2                !
 ! R53   R(28,53)                1.01           estimate D2E/DX2                !
 ! R54   R(29,30)                1.5242         estimate D2E/DX2                !
 ! R55   R(29,54)                1.0942         estimate D2E/DX2                !
 ! R56   R(29,55)                1.0902         estimate D2E/DX2                !
 ! R57   R(30,56)                1.091          estimate D2E/DX2                !
 ! R58   R(30,57)                1.0932         estimate D2E/DX2                !
 ! R59   R(30,58)                1.0938         estimate D2E/DX2                !
 ! R60   R(31,32)                1.4707         estimate D2E/DX2                !
 ! R61   R(31,59)                1.01           estimate D2E/DX2                !
 ! R62   R(32,33)                1.5242         estimate D2E/DX2                !
 ! R63   R(32,60)                1.0902         estimate D2E/DX2                !
 ! R64   R(32,61)                1.0942         estimate D2E/DX2                !
 ! R65   R(33,62)                1.091          estimate D2E/DX2                !
 ! R66   R(33,63)                1.0938         estimate D2E/DX2                !
 ! R67   R(33,64)                1.0932         estimate D2E/DX2                !
 ! A1    A(2,1,6)              118.0566         estimate D2E/DX2                !
 ! A2    A(2,1,26)             123.3626         estimate D2E/DX2                !
 ! A3    A(6,1,26)             118.4878         estimate D2E/DX2                !
 ! A4    A(1,2,3)              118.6722         estimate D2E/DX2                !
 ! A5    A(1,2,28)             124.7235         estimate D2E/DX2                !
 ! A6    A(3,2,28)             116.582          estimate D2E/DX2                !
 ! A7    A(2,3,4)              121.1948         estimate D2E/DX2                !
 ! A8    A(2,3,34)             120.3064         estimate D2E/DX2                !
 ! A9    A(4,3,34)             118.4917         estimate D2E/DX2                !
 ! A10   A(3,4,5)              121.7477         estimate D2E/DX2                !
 ! A11   A(3,4,7)              117.1903         estimate D2E/DX2                !
 ! A12   A(5,4,7)              121.0567         estimate D2E/DX2                !
 ! A13   A(4,5,6)              116.1436         estimate D2E/DX2                !
 ! A14   A(4,5,10)             119.2844         estimate D2E/DX2                !
 ! A15   A(6,5,10)             124.5458         estimate D2E/DX2                !
 ! A16   A(1,6,5)              124.1373         estimate D2E/DX2                !
 ! A17   A(1,6,35)             118.3128         estimate D2E/DX2                !
 ! A18   A(5,6,35)             117.5376         estimate D2E/DX2                !
 ! A19   A(4,7,8)              120.5103         estimate D2E/DX2                !
 ! A20   A(7,8,9)              121.0556         estimate D2E/DX2                !
 ! A21   A(7,8,11)             117.1894         estimate D2E/DX2                !
 ! A22   A(9,8,11)             121.7497         estimate D2E/DX2                !
 ! A23   A(8,9,10)             119.2838         estimate D2E/DX2                !
 ! A24   A(8,9,14)             116.1393         estimate D2E/DX2                !
 ! A25   A(10,9,14)            124.5509         estimate D2E/DX2                !
 ! A26   A(5,10,9)             118.7424         estimate D2E/DX2                !
 ! A27   A(5,10,15)            120.5238         estimate D2E/DX2                !
 ! A28   A(9,10,15)            120.5189         estimate D2E/DX2                !
 ! A29   A(8,11,12)            121.1949         estimate D2E/DX2                !
 ! A30   A(8,11,36)            118.4935         estimate D2E/DX2                !
 ! A31   A(12,11,36)           120.3046         estimate D2E/DX2                !
 ! A32   A(11,12,13)           118.6737         estimate D2E/DX2                !
 ! A33   A(11,12,31)           116.5714         estimate D2E/DX2                !
 ! A34   A(13,12,31)           124.7333         estimate D2E/DX2                !
 ! A35   A(12,13,14)           118.0534         estimate D2E/DX2                !
 ! A36   A(12,13,27)           123.3742         estimate D2E/DX2                !
 ! A37   A(14,13,27)           118.4794         estimate D2E/DX2                !
 ! A38   A(9,14,13)            124.1428         estimate D2E/DX2                !
 ! A39   A(9,14,37)            117.5427         estimate D2E/DX2                !
 ! A40   A(13,14,37)           118.302          estimate D2E/DX2                !
 ! A41   A(10,15,16)           123.2682         estimate D2E/DX2                !
 ! A42   A(10,15,20)           117.608          estimate D2E/DX2                !
 ! A43   A(16,15,20)           119.1237         estimate D2E/DX2                !
 ! A44   A(15,16,17)           119.4604         estimate D2E/DX2                !
 ! A45   A(15,16,21)           119.638          estimate D2E/DX2                !
 ! A46   A(17,16,21)           120.9016         estimate D2E/DX2                !
 ! A47   A(16,17,18)           120.8332         estimate D2E/DX2                !
 ! A48   A(16,17,38)           118.7624         estimate D2E/DX2                !
 ! A49   A(18,17,38)           120.4043         estimate D2E/DX2                !
 ! A50   A(17,18,19)           119.7424         estimate D2E/DX2                !
 ! A51   A(17,18,39)           119.939          estimate D2E/DX2                !
 ! A52   A(19,18,39)           120.3186         estimate D2E/DX2                !
 ! A53   A(18,19,20)           120.0085         estimate D2E/DX2                !
 ! A54   A(18,19,40)           120.3348         estimate D2E/DX2                !
 ! A55   A(20,19,40)           119.6567         estimate D2E/DX2                !
 ! A56   A(15,20,19)           120.8317         estimate D2E/DX2                !
 ! A57   A(15,20,41)           119.3506         estimate D2E/DX2                !
 ! A58   A(19,20,41)           119.8176         estimate D2E/DX2                !
 ! A59   A(16,21,22)           112.3086         estimate D2E/DX2                !
 ! A60   A(16,21,24)           123.4912         estimate D2E/DX2                !
 ! A61   A(22,21,24)           124.1997         estimate D2E/DX2                !
 ! A62   A(21,22,23)           117.4606         estimate D2E/DX2                !
 ! A63   A(22,23,25)           111.266          estimate D2E/DX2                !
 ! A64   A(22,23,42)           103.7562         estimate D2E/DX2                !
 ! A65   A(22,23,43)           108.4076         estimate D2E/DX2                !
 ! A66   A(25,23,42)           111.8538         estimate D2E/DX2                !
 ! A67   A(25,23,43)           111.7428         estimate D2E/DX2                !
 ! A68   A(42,23,43)           109.4715         estimate D2E/DX2                !
 ! A69   A(23,25,44)           109.6541         estimate D2E/DX2                !
 ! A70   A(23,25,45)           111.1124         estimate D2E/DX2                !
 ! A71   A(23,25,46)           111.0248         estimate D2E/DX2                !
 ! A72   A(44,25,45)           107.9814         estimate D2E/DX2                !
 ! A73   A(44,25,46)           108.0034         estimate D2E/DX2                !
 ! A74   A(45,25,46)           108.9629         estimate D2E/DX2                !
 ! A75   A(1,26,47)            111.5513         estimate D2E/DX2                !
 ! A76   A(1,26,48)            109.8394         estimate D2E/DX2                !
 ! A77   A(1,26,49)            113.2588         estimate D2E/DX2                !
 ! A78   A(47,26,48)           107.0874         estimate D2E/DX2                !
 ! A79   A(47,26,49)           107.6935         estimate D2E/DX2                !
 ! A80   A(48,26,49)           107.1271         estimate D2E/DX2                !
 ! A81   A(13,27,50)           109.8364         estimate D2E/DX2                !
 ! A82   A(13,27,51)           111.5474         estimate D2E/DX2                !
 ! A83   A(13,27,52)           113.2644         estimate D2E/DX2                !
 ! A84   A(50,27,51)           107.0767         estimate D2E/DX2                !
 ! A85   A(50,27,52)           107.1305         estimate D2E/DX2                !
 ! A86   A(51,27,52)           107.7015         estimate D2E/DX2                !
 ! A87   A(2,28,29)            130.4992         estimate D2E/DX2                !
 ! A88   A(2,28,53)            113.8217         estimate D2E/DX2                !
 ! A89   A(29,28,53)           113.0942         estimate D2E/DX2                !
 ! A90   A(28,29,30)           109.425          estimate D2E/DX2                !
 ! A91   A(28,29,54)           109.8774         estimate D2E/DX2                !
 ! A92   A(28,29,55)           110.337          estimate D2E/DX2                !
 ! A93   A(30,29,54)           109.8328         estimate D2E/DX2                !
 ! A94   A(30,29,55)           109.5135         estimate D2E/DX2                !
 ! A95   A(54,29,55)           107.8353         estimate D2E/DX2                !
 ! A96   A(29,30,56)           110.0996         estimate D2E/DX2                !
 ! A97   A(29,30,57)           111.24           estimate D2E/DX2                !
 ! A98   A(29,30,58)           111.55           estimate D2E/DX2                !
 ! A99   A(56,30,57)           107.6629         estimate D2E/DX2                !
 ! A100  A(56,30,58)           107.5513         estimate D2E/DX2                !
 ! A101  A(57,30,58)           108.5848         estimate D2E/DX2                !
 ! A102  A(12,31,32)           130.5234         estimate D2E/DX2                !
 ! A103  A(12,31,59)           113.8349         estimate D2E/DX2                !
 ! A104  A(32,31,59)           113.1041         estimate D2E/DX2                !
 ! A105  A(31,32,33)           109.4238         estimate D2E/DX2                !
 ! A106  A(31,32,60)           110.3358         estimate D2E/DX2                !
 ! A107  A(31,32,61)           109.8731         estimate D2E/DX2                !
 ! A108  A(33,32,60)           109.5207         estimate D2E/DX2                !
 ! A109  A(33,32,61)           109.8335         estimate D2E/DX2                !
 ! A110  A(60,32,61)           107.834          estimate D2E/DX2                !
 ! A111  A(32,33,62)           110.0982         estimate D2E/DX2                !
 ! A112  A(32,33,63)           111.5493         estimate D2E/DX2                !
 ! A113  A(32,33,64)           111.2418         estimate D2E/DX2                !
 ! A114  A(62,33,63)           107.5502         estimate D2E/DX2                !
 ! A115  A(62,33,64)           107.6632         estimate D2E/DX2                !
 ! A116  A(63,33,64)           108.5858         estimate D2E/DX2                !
 ! D1    D(6,1,2,3)              2.263          estimate D2E/DX2                !
 ! D2    D(6,1,2,28)          -179.5206         estimate D2E/DX2                !
 ! D3    D(26,1,2,3)          -174.1719         estimate D2E/DX2                !
 ! D4    D(26,1,2,28)            4.0445         estimate D2E/DX2                !
 ! D5    D(2,1,6,5)             -1.0505         estimate D2E/DX2                !
 ! D6    D(2,1,6,35)          -179.74           estimate D2E/DX2                !
 ! D7    D(26,1,6,5)           175.5619         estimate D2E/DX2                !
 ! D8    D(26,1,6,35)           -3.1276         estimate D2E/DX2                !
 ! D9    D(2,1,26,47)           56.4317         estimate D2E/DX2                !
 ! D10   D(2,1,26,48)          175.0091         estimate D2E/DX2                !
 ! D11   D(2,1,26,49)          -65.2654         estimate D2E/DX2                !
 ! D12   D(6,1,26,47)         -119.9887         estimate D2E/DX2                !
 ! D13   D(6,1,26,48)           -1.4113         estimate D2E/DX2                !
 ! D14   D(6,1,26,49)          118.3142         estimate D2E/DX2                !
 ! D15   D(1,2,3,4)             -1.552          estimate D2E/DX2                !
 ! D16   D(1,2,3,34)           179.4269         estimate D2E/DX2                !
 ! D17   D(28,2,3,4)          -179.9127         estimate D2E/DX2                !
 ! D18   D(28,2,3,34)            1.0662         estimate D2E/DX2                !
 ! D19   D(1,2,28,29)           22.3608         estimate D2E/DX2                !
 ! D20   D(1,2,28,53)         -177.4295         estimate D2E/DX2                !
 ! D21   D(3,2,28,29)         -159.3892         estimate D2E/DX2                !
 ! D22   D(3,2,28,53)            0.8206         estimate D2E/DX2                !
 ! D23   D(2,3,4,5)             -0.4696         estimate D2E/DX2                !
 ! D24   D(2,3,4,7)           -179.6449         estimate D2E/DX2                !
 ! D25   D(34,3,4,5)           178.5688         estimate D2E/DX2                !
 ! D26   D(34,3,4,7)            -0.6064         estimate D2E/DX2                !
 ! D27   D(3,4,5,6)              1.678          estimate D2E/DX2                !
 ! D28   D(3,4,5,10)           179.9012         estimate D2E/DX2                !
 ! D29   D(7,4,5,6)           -179.1784         estimate D2E/DX2                !
 ! D30   D(7,4,5,10)            -0.9552         estimate D2E/DX2                !
 ! D31   D(3,4,7,8)            178.2668         estimate D2E/DX2                !
 ! D32   D(5,4,7,8)             -0.9145         estimate D2E/DX2                !
 ! D33   D(4,5,6,1)             -0.8962         estimate D2E/DX2                !
 ! D34   D(4,5,6,35)           177.8027         estimate D2E/DX2                !
 ! D35   D(10,5,6,1)          -179.0146         estimate D2E/DX2                !
 ! D36   D(10,5,6,35)           -0.3157         estimate D2E/DX2                !
 ! D37   D(4,5,10,9)             2.7852         estimate D2E/DX2                !
 ! D38   D(4,5,10,15)          177.487          estimate D2E/DX2                !
 ! D39   D(6,5,10,9)          -179.1514         estimate D2E/DX2                !
 ! D40   D(6,5,10,15)           -4.4496         estimate D2E/DX2                !
 ! D41   D(4,7,8,9)              0.8949         estimate D2E/DX2                !
 ! D42   D(4,7,8,11)          -178.2858         estimate D2E/DX2                !
 ! D43   D(7,8,9,10)             0.9942         estimate D2E/DX2                !
 ! D44   D(7,8,9,14)           179.2266         estimate D2E/DX2                !
 ! D45   D(11,8,9,10)         -179.8628         estimate D2E/DX2                !
 ! D46   D(11,8,9,14)           -1.6305         estimate D2E/DX2                !
 ! D47   D(7,8,11,12)          179.6354         estimate D2E/DX2                !
 ! D48   D(7,8,11,36)            0.5886         estimate D2E/DX2                !
 ! D49   D(9,8,11,12)            0.4608         estimate D2E/DX2                !
 ! D50   D(9,8,11,36)         -178.5859         estimate D2E/DX2                !
 ! D51   D(8,9,10,5)            -2.8039         estimate D2E/DX2                !
 ! D52   D(8,9,10,15)         -177.5059         estimate D2E/DX2                !
 ! D53   D(14,9,10,5)          179.1229         estimate D2E/DX2                !
 ! D54   D(14,9,10,15)           4.4208         estimate D2E/DX2                !
 ! D55   D(8,9,14,13)            0.8454         estimate D2E/DX2                !
 ! D56   D(8,9,14,37)         -177.8481         estimate D2E/DX2                !
 ! D57   D(10,9,14,13)         178.9735         estimate D2E/DX2                !
 ! D58   D(10,9,14,37)           0.28           estimate D2E/DX2                !
 ! D59   D(5,10,15,16)          92.962          estimate D2E/DX2                !
 ! D60   D(5,10,15,20)         -87.1428         estimate D2E/DX2                !
 ! D61   D(9,10,15,16)         -92.4308         estimate D2E/DX2                !
 ! D62   D(9,10,15,20)          87.4644         estimate D2E/DX2                !
 ! D63   D(8,11,12,13)           1.5222         estimate D2E/DX2                !
 ! D64   D(8,11,12,31)         179.9141         estimate D2E/DX2                !
 ! D65   D(36,11,12,13)       -179.4482         estimate D2E/DX2                !
 ! D66   D(36,11,12,31)         -1.0563         estimate D2E/DX2                !
 ! D67   D(11,12,13,14)         -2.2359         estimate D2E/DX2                !
 ! D68   D(11,12,13,27)        174.1996         estimate D2E/DX2                !
 ! D69   D(31,12,13,14)        179.5142         estimate D2E/DX2                !
 ! D70   D(31,12,13,27)         -4.0502         estimate D2E/DX2                !
 ! D71   D(11,12,31,32)        159.5668         estimate D2E/DX2                !
 ! D72   D(11,12,31,59)         -0.8208         estimate D2E/DX2                !
 ! D73   D(13,12,31,32)        -22.15           estimate D2E/DX2                !
 ! D74   D(13,12,31,59)        177.4624         estimate D2E/DX2                !
 ! D75   D(12,13,14,9)           1.0644         estimate D2E/DX2                !
 ! D76   D(12,13,14,37)        179.7487         estimate D2E/DX2                !
 ! D77   D(27,13,14,9)        -175.5493         estimate D2E/DX2                !
 ! D78   D(27,13,14,37)          3.135          estimate D2E/DX2                !
 ! D79   D(12,13,27,50)       -175.0983         estimate D2E/DX2                !
 ! D80   D(12,13,27,51)        -56.5386         estimate D2E/DX2                !
 ! D81   D(12,13,27,52)         65.1702         estimate D2E/DX2                !
 ! D82   D(14,13,27,50)          1.3229         estimate D2E/DX2                !
 ! D83   D(14,13,27,51)        119.8826         estimate D2E/DX2                !
 ! D84   D(14,13,27,52)       -118.4086         estimate D2E/DX2                !
 ! D85   D(10,15,16,17)        179.8877         estimate D2E/DX2                !
 ! D86   D(10,15,16,21)         -0.1068         estimate D2E/DX2                !
 ! D87   D(20,15,16,17)         -0.006          estimate D2E/DX2                !
 ! D88   D(20,15,16,21)        179.9995         estimate D2E/DX2                !
 ! D89   D(10,15,20,19)       -179.9219         estimate D2E/DX2                !
 ! D90   D(10,15,20,41)          0.0701         estimate D2E/DX2                !
 ! D91   D(16,15,20,19)         -0.0222         estimate D2E/DX2                !
 ! D92   D(16,15,20,41)        179.9698         estimate D2E/DX2                !
 ! D93   D(15,16,17,18)          0.0337         estimate D2E/DX2                !
 ! D94   D(15,16,17,38)        179.9954         estimate D2E/DX2                !
 ! D95   D(21,16,17,18)       -179.9719         estimate D2E/DX2                !
 ! D96   D(21,16,17,38)         -0.0102         estimate D2E/DX2                !
 ! D97   D(15,16,21,22)        179.2116         estimate D2E/DX2                !
 ! D98   D(15,16,21,24)         -0.529          estimate D2E/DX2                !
 ! D99   D(17,16,21,22)         -0.7828         estimate D2E/DX2                !
 ! D100  D(17,16,21,24)        179.4766         estimate D2E/DX2                !
 ! D101  D(16,17,18,19)         -0.033          estimate D2E/DX2                !
 ! D102  D(16,17,18,39)        179.9814         estimate D2E/DX2                !
 ! D103  D(38,17,18,19)       -179.994          estimate D2E/DX2                !
 ! D104  D(38,17,18,39)          0.0204         estimate D2E/DX2                !
 ! D105  D(17,18,19,20)          0.0044         estimate D2E/DX2                !
 ! D106  D(17,18,19,40)       -179.9863         estimate D2E/DX2                !
 ! D107  D(39,18,19,20)        179.99           estimate D2E/DX2                !
 ! D108  D(39,18,19,40)         -0.0007         estimate D2E/DX2                !
 ! D109  D(18,19,20,15)          0.0233         estimate D2E/DX2                !
 ! D110  D(18,19,20,41)       -179.9688         estimate D2E/DX2                !
 ! D111  D(40,19,20,15)       -179.9859         estimate D2E/DX2                !
 ! D112  D(40,19,20,41)          0.0221         estimate D2E/DX2                !
 ! D113  D(16,21,22,23)        179.9965         estimate D2E/DX2                !
 ! D114  D(24,21,22,23)         -0.2651         estimate D2E/DX2                !
 ! D115  D(21,22,23,25)        -86.5456         estimate D2E/DX2                !
 ! D116  D(21,22,23,42)        153.0224         estimate D2E/DX2                !
 ! D117  D(21,22,23,43)         36.7165         estimate D2E/DX2                !
 ! D118  D(22,23,25,44)       -175.0721         estimate D2E/DX2                !
 ! D119  D(22,23,25,45)         65.6336         estimate D2E/DX2                !
 ! D120  D(22,23,25,46)        -55.8054         estimate D2E/DX2                !
 ! D121  D(42,23,25,44)        -59.5401         estimate D2E/DX2                !
 ! D122  D(42,23,25,45)       -178.8343         estimate D2E/DX2                !
 ! D123  D(42,23,25,46)         59.7267         estimate D2E/DX2                !
 ! D124  D(43,23,25,44)         63.5943         estimate D2E/DX2                !
 ! D125  D(43,23,25,45)        -55.7            estimate D2E/DX2                !
 ! D126  D(43,23,25,46)       -177.139          estimate D2E/DX2                !
 ! D127  D(2,28,29,30)         168.4766         estimate D2E/DX2                !
 ! D128  D(2,28,29,54)          47.8098         estimate D2E/DX2                !
 ! D129  D(2,28,29,55)         -70.9633         estimate D2E/DX2                !
 ! D130  D(53,28,29,30)          8.1536         estimate D2E/DX2                !
 ! D131  D(53,28,29,54)       -112.5131         estimate D2E/DX2                !
 ! D132  D(53,28,29,55)        128.7138         estimate D2E/DX2                !
 ! D133  D(28,29,30,56)        179.2195         estimate D2E/DX2                !
 ! D134  D(28,29,30,57)         59.953          estimate D2E/DX2                !
 ! D135  D(28,29,30,58)        -61.4551         estimate D2E/DX2                !
 ! D136  D(54,29,30,56)        -60.0866         estimate D2E/DX2                !
 ! D137  D(54,29,30,57)       -179.3531         estimate D2E/DX2                !
 ! D138  D(54,29,30,58)         59.2387         estimate D2E/DX2                !
 ! D139  D(55,29,30,56)         58.1588         estimate D2E/DX2                !
 ! D140  D(55,29,30,57)        -61.1077         estimate D2E/DX2                !
 ! D141  D(55,29,30,58)        177.4842         estimate D2E/DX2                !
 ! D142  D(12,31,32,33)       -168.6313         estimate D2E/DX2                !
 ! D143  D(12,31,32,60)         70.8011         estimate D2E/DX2                !
 ! D144  D(12,31,32,61)        -47.9671         estimate D2E/DX2                !
 ! D145  D(59,31,32,33)         -8.1309         estimate D2E/DX2                !
 ! D146  D(59,31,32,60)       -128.6986         estimate D2E/DX2                !
 ! D147  D(59,31,32,61)        112.5333         estimate D2E/DX2                !
 ! D148  D(31,32,33,62)       -179.232          estimate D2E/DX2                !
 ! D149  D(31,32,33,63)         61.4454         estimate D2E/DX2                !
 ! D150  D(31,32,33,64)        -59.9648         estimate D2E/DX2                !
 ! D151  D(60,32,33,62)        -58.1689         estimate D2E/DX2                !
 ! D152  D(60,32,33,63)       -177.4915         estimate D2E/DX2                !
 ! D153  D(60,32,33,64)         61.0983         estimate D2E/DX2                !
 ! D154  D(61,32,33,62)         60.0797         estimate D2E/DX2                !
 ! D155  D(61,32,33,63)        -59.2429         estimate D2E/DX2                !
 ! D156  D(61,32,33,64)        179.3469         estimate D2E/DX2                !
 --------------------------------------------------------------------------------
 Trust Radius=3.00D-01 FncErr=1.00D-07 GrdErr=1.00D-06
 Number of steps in this run=    349 maximum allowed number of steps=    384.
 GradGradGradGradGradGradGradGradGradGradGradGradGradGradGradGradGradGrad

 Symmetry turned off by external request.
 Stoichiometry    C28H31N2O3(1+)
 Framework group  C1[X(C28H31N2O3)]
 Deg. of freedom   186
 Full point group                 C1      NOp   1
                          Input orientation:                          
 ---------------------------------------------------------------------
 Center     Atomic      Atomic             Coordinates (Angstroms)
 Number     Number       Type             X           Y           Z
 ---------------------------------------------------------------------
      1          6           0        3.601857   -0.615171    0.420754
      2          6           0        3.486560   -1.965218   -0.082593
      3          6           0        2.199467   -2.478992   -0.355989
      4          6           0        1.070042   -1.731483   -0.121857
      5          6           0        1.140938   -0.419026    0.411831
      6          6           0        2.445190    0.088441    0.654082
      7          8           0       -0.126205   -2.308264   -0.407161
      8          6           0       -1.286608   -1.643573   -0.168839
      9          6           0       -1.280747   -0.328773    0.363967
     10          6           0       -0.049570    0.301565    0.629169
     11          6           0       -2.458262   -2.305088   -0.449220
     12          6           0       -3.713466   -1.696546   -0.226352
     13          6           0       -3.747933   -0.341305    0.275219
     14          6           0       -2.552340    0.274351    0.555804
     15          6           0       -0.010983    1.664895    1.242387
     16          6           0        0.042717    2.852157    0.484810
     17          6           0        0.073710    4.087659    1.142353
     18          6           0        0.052882    4.156650    2.530435
     19          6           0       -0.000138    2.984426    3.279456
     20          6           0       -0.032010    1.748493    2.637743
     21          6           0        0.065707    2.776083   -1.009400
     22          8           0        0.099951    3.987042   -1.579474
     23          6           0        0.125118    4.043906   -3.035225
     24          8           0        0.049838    1.733101   -1.626173
     25          6           0        1.543811    3.951323   -3.565122
     26          6           0        4.925478    0.084433    0.627980
     27          6           0       -5.022869    0.455184    0.431602
     28          7           0        4.538655   -2.784438   -0.351303
     29          6           0        5.919148   -2.763642    0.155447
     30          6           0        6.621185   -4.059709   -0.232668
     31          7           0       -4.811834   -2.435534   -0.538369
     32          6           0       -6.206916   -2.310032   -0.090112
     33          6           0       -6.987808   -3.549770   -0.510276
     34          1           0        2.082766   -3.485415   -0.743241
     35          1           0        2.526878    1.102322    1.027359
     36          1           0       -2.401512   -3.317770   -0.833568
     37          1           0       -2.573304    1.291663    0.928056
     38          1           0        0.114957    4.991947    0.549702
     39          1           0        0.077707    5.121352    3.024708
     40          1           0       -0.017009    3.027073    4.363103
     41          1           0       -0.073823    0.836996    3.224458
     42          1           0       -0.331479    5.005808   -3.264792
     43          1           0       -0.503321    3.242012   -3.421824
     44          1           0        1.540431    4.084294   -4.650307
     45          1           0        1.982192    2.976150   -3.346567
     46          1           0        2.175589    4.729662   -3.131624
     47          1           0        5.513872    0.111195   -0.292609
     48          1           0        4.754418    1.118343    0.929045
     49          1           0        5.540768   -0.377902    1.401512
     50          1           0       -4.787304    1.473166    0.743163
     51          1           0       -5.569716    0.526758   -0.511923
     52          1           0       -5.701854    0.039638    1.177908
     53          1           0        4.271087   -3.679397   -0.735437
     54          1           0        5.914175   -2.655809    1.244343
     55          1           0        6.463095   -1.915870   -0.261562
     56          1           0        7.651458   -4.050074    0.126258
     57          1           0        6.649305   -4.185148   -1.318319
     58          1           0        6.127133   -4.931235    0.206258
     59          1           0       -4.596593   -3.348357   -0.913232
     60          1           0       -6.667198   -1.423928   -0.527686
     61          1           0       -6.239605   -2.201854    0.998261
     62          1           0       -8.028560   -3.462086   -0.194801
     63          1           0       -6.579769   -4.455698   -0.052993
     64          1           0       -6.979748   -3.673711   -1.596430
 ---------------------------------------------------------------------
 Rotational constants (GHZ):      0.1360020      0.0875446      0.0648948
 Standard basis: 6-311G(d) (5D, 7F)
   687 basis functions,  1211 primitive gaussians,   720 cartesian basis functions
   118 alpha electrons      118 beta electrons
       nuclear repulsion energy      3320.7937617970 Hartrees.
 NAtoms=   64 NActive=   64 NUniq=   64 SFac= 1.00D+00 NAtFMM=   60 NAOKFM=T Big=T
 Integral buffers will be    131072 words long.
 Regular integral format.
 Two-electron integral symmetry is turned off.
 One-electron integrals computed using PRISM.
 NBasis=   687 RedAO= T EigKep=  1.02D-04  NBF=   687
 NBsUse=   687 1.00D-06 EigRej= -1.00D+00 NBFU=   687
 Initial guess from the checkpoint file:  "R6G.chk"
 B after Tr=     0.000000    0.000000    0.000000
         Rot=    1.000000    0.000000    0.000000    0.000000 Ang=   0.00 deg.
 Requested convergence on RMS density matrix=1.00D-08 within 128 cycles.
 Requested convergence on MAX density matrix=1.00D-06.
 Requested convergence on             energy=1.00D-06.
 No special actions if energy rises.
 SCF Done:  E(RB3LYP) =  -1420.97549846     A.U. after    1 cycles
            NFock=  1  Conv=0.48D-08     -V/T= 2.0039
 DoSCS=F DFT=T ScalE2(SS,OS)=  1.000000  1.000000
 ExpMin= 1.03D-01 ExpMax= 8.59D+03 ExpMxC= 1.30D+03 IAcc=3 IRadAn=         5 AccDes= 0.00D+00
 HarFok:  IExCor=  205 AccDes= 0.00D+00 IRadAn=         5 IDoV=-2 UseB2=F ITyADJ=14
 ICtDFT= 12500011 ScaDFX=  1.000000  1.000000  1.000000  1.000000
 Range of M.O.s used for correlation:    34   687
 NBasis=   687 NAE=   118 NBE=   118 NFC=    33 NFV=     0
 NROrb=    654 NOA=    85 NOB=    85 NVA=   569 NVB=   569

 **** Warning!!: The largest alpha MO coefficient is  0.16824922D+02

 Would need an additional         82818300000 words for in-memory AO integral storage.
    20 initial guesses have been made.
 Convergence on wavefunction:    0.000001000000000
 Iteration     1 Dimension    20 NMult     0 NNew     20
 CISAX will form    20 AO SS matrices at one time.
 New state      3 was old state      5
 New state      5 was old state      6
 Iteration     2 Dimension    30 NMult    20 NNew     10
 Iteration     3 Dimension    40 NMult    30 NNew     10
 New state      3 was old state      4
 New state      4 was old state      3
 Iteration     4 Dimension    50 NMult    40 NNew     10
 Iteration     5 Dimension    60 NMult    50 NNew     10
 Iteration     6 Dimension    70 NMult    60 NNew     10
 Iteration     7 Dimension    80 NMult    70 NNew     10
 Iteration     8 Dimension    90 NMult    80 NNew     10
 Iteration     9 Dimension   100 NMult    90 NNew     10
 Iteration    10 Dimension   110 NMult   100 NNew     10
 Iteration    11 Dimension   116 NMult   110 NNew      6
 Iteration    12 Dimension   120 NMult   116 NNew      4
 ***********************************************************************
 Excited states from <AA,BB:AA,BB> singles matrix:
 ***********************************************************************
 
 Ground to excited state transition densities written to RWF  633
 Ground to excited state transition electric dipole moments (Au):
       state          X           Y           Z        Dip. S.      Osc.
         1        -3.4901      0.1250     -0.0701     12.2011      0.8414
         2         0.0019      0.0687     -0.0311      0.0057      0.0004
         3        -0.0288     -1.1532     -0.0977      1.3403      0.1198
         4        -0.2487     -0.0586     -0.0089      0.0654      0.0059
         5        -0.0041     -0.3794     -0.1066      0.1553      0.0142
 Ground to excited state transition velocity dipole moments (Au):
       state          X           Y           Z        Dip. S.      Osc.
         1         0.3534     -0.0127      0.0071      0.1251      0.8061
         2         0.0000      0.0003      0.0066      0.0000      0.0003
         3         0.0040      0.1514      0.0121      0.0231      0.1148
         4         0.0305      0.0078      0.0011      0.0010      0.0049
         5         0.0005      0.0491      0.0119      0.0026      0.0124
 Ground to excited state transition magnetic dipole moments (Au):
       state          X           Y           Z
         1         0.0201      0.4054     -0.1167
         2        -0.0381      0.0040     -0.0002
         3        -0.0313     -0.0144     -0.0102
         4         0.0049     -0.0131     -0.1794
         5        -0.1020     -0.0008     -0.0054
 Ground to excited state transition velocity quadrupole moments (Au):
       state          XX          YY          ZZ          XY          XZ          YZ
         1        -0.1761      0.1107      0.0007     -1.4104     -0.0449     -0.0292
         2         0.7675     -0.0005     -0.0016     -0.0314      0.0160     -0.0031
         3        -1.8934      0.2083      0.3506      0.0965     -0.0647     -0.0350
         4        -0.1356      0.0197      0.0208     -0.1242     -0.0089     -0.0071
         5        -0.3445      0.0118      0.1044      0.0138     -0.0109      0.0379
 <0|del|b> * <b|rxdel|0> + <0|del|b> * <b|delr+rdel|0>
 Rotatory Strengths (R) in cgs (10**-40 erg-esu-cm/Gauss)
       state          XX          YY          ZZ    R(velocity)    E-M Angle
         1       -56.5129     20.3834     44.0373      2.6360       89.56
         2        -0.6515      0.6290      0.0172     -0.0018       90.00
         3        22.8415     -4.1076    -31.5803     -4.2821      116.44
         4        -0.9390     -0.3315      0.5014     -0.2564       91.49
         5         1.5446     -0.6749     -1.6724     -0.2676       91.73
 1/2[<0|r|b>*<b|rxdel|0> + (<0|rxdel|b>*<b|r|0>)*]
 Rotatory Strengths (R) in cgs (10**-40 erg-esu-cm/Gauss)
       state          XX          YY          ZZ     R(length)
         1        49.7291    -35.8284     -5.7829      2.7059
         2         0.0513     -0.1936     -0.0039     -0.0488
         3        -0.6378    -11.7787     -0.7056     -4.3740
         4         0.8548     -0.5441     -1.1273     -0.2722
         5        -0.2985     -0.2013     -0.4041     -0.3013
  1/2[<0|del|b>*<b|r|0> + (<0|r|b>*<b|del|0>)*] (Au)
       state          X           Y           Z        Dip. S.   Osc.(frdel)
         1        -1.2333     -0.0016     -0.0005      1.2354      0.8236
         2         0.0000      0.0000     -0.0002      0.0002      0.0001
         3        -0.0001     -0.1746     -0.0012      0.1759      0.1173
         4        -0.0076     -0.0005      0.0000      0.0081      0.0054
         5         0.0000     -0.0186     -0.0013      0.0199      0.0133

 Excitation energies and oscillator strengths:
 
 Excited state symmetry could not be determined.
 Excited State   1:      Singlet-?Sym    2.8149 eV  440.45 nm  f=0.8414  <S**2>=0.000
     118 ->119         0.70169
 This state for optimization and/or second-order correction.
 Total Energy, E(TD-HF/TD-KS) =  -1420.87205136    
 Copying the excited state density for this state as the 1-particle RhoCI density.
 
 Excited state symmetry could not be determined.
 Excited State   2:      Singlet-?Sym    3.1324 eV  395.81 nm  f=0.0004  <S**2>=0.000
     116 ->119         0.18939
     117 ->119         0.67548
 
 Excited state symmetry could not be determined.
 Excited State   3:      Singlet-?Sym    3.6478 eV  339.88 nm  f=0.1198  <S**2>=0.000
     112 ->119         0.14746
     116 ->119         0.63371
     117 ->119        -0.16986
     118 ->120        -0.12694
     118 ->121        -0.13505
 
 Excited state symmetry could not be determined.
 Excited State   4:      Singlet-?Sym    3.6790 eV  337.00 nm  f=0.0059  <S**2>=0.000
     114 ->119        -0.27600
     115 ->119         0.64664
 
 Excited state symmetry could not be determined.
 Excited State   5:      Singlet-?Sym    3.7392 eV  331.58 nm  f=0.0142  <S**2>=0.000
     116 ->119         0.11820
     118 ->120         0.69395
 SavETr:  write IOETrn=   770 NScale= 10 NData=  16 NLR=1 NState=    5 LETran=     100.
          IDoAtm=11111111111111111111111111111111111111111111111111
          IDoAtm=11111111111111
          Differentiating once with respect to electric field.
                with respect to dipole field.
          Differentiating once with respect to nuclear coordinates.
          There are     1 degrees of freedom in the 1st order CPHF.  IDoFFX=0 NUNeed=     1.
 LinEq1:  Iter=  0 NonCon=     1 RMS=6.09D-03 Max=1.02D+00 NDo=     1
 AX will form     1 AO Fock derivatives at one time.
 LinEq1:  Iter=  1 NonCon=     1 RMS=4.94D-03 Max=5.84D-01 NDo=     1
 LinEq1:  Iter=  2 NonCon=     1 RMS=3.13D-03 Max=1.92D-01 NDo=     1
 LinEq1:  Iter=  3 NonCon=     1 RMS=1.17D-03 Max=8.72D-02 NDo=     1
 LinEq1:  Iter=  4 NonCon=     1 RMS=9.42D-04 Max=6.43D-02 NDo=     1
 LinEq1:  Iter=  5 NonCon=     1 RMS=7.59D-04 Max=4.38D-02 NDo=     1
 LinEq1:  Iter=  6 NonCon=     1 RMS=4.04D-04 Max=3.66D-02 NDo=     1
 LinEq1:  Iter=  7 NonCon=     1 RMS=2.16D-04 Max=1.12D-02 NDo=     1
 LinEq1:  Iter=  8 NonCon=     1 RMS=1.58D-04 Max=1.14D-02 NDo=     1
 LinEq1:  Iter=  9 NonCon=     1 RMS=8.49D-05 Max=5.32D-03 NDo=     1
 LinEq1:  Iter= 10 NonCon=     1 RMS=6.47D-05 Max=3.78D-03 NDo=     1
 LinEq1:  Iter= 11 NonCon=     1 RMS=3.61D-05 Max=3.03D-03 NDo=     1
 LinEq1:  Iter= 12 NonCon=     1 RMS=2.07D-05 Max=1.71D-03 NDo=     1
 LinEq1:  Iter= 13 NonCon=     1 RMS=1.15D-05 Max=1.05D-03 NDo=     1
 LinEq1:  Iter= 14 NonCon=     1 RMS=7.61D-06 Max=5.83D-04 NDo=     1
 LinEq1:  Iter= 15 NonCon=     1 RMS=3.89D-06 Max=2.03D-04 NDo=     1
 LinEq1:  Iter= 16 NonCon=     1 RMS=2.14D-06 Max=1.48D-04 NDo=     1
 LinEq1:  Iter= 17 NonCon=     1 RMS=1.10D-06 Max=6.82D-05 NDo=     1
 LinEq1:  Iter= 18 NonCon=     1 RMS=6.82D-07 Max=7.37D-05 NDo=     1
 LinEq1:  Iter= 19 NonCon=     1 RMS=5.00D-07 Max=7.34D-05 NDo=     1
 LinEq1:  Iter= 20 NonCon=     1 RMS=3.75D-07 Max=3.13D-05 NDo=     1
 LinEq1:  Iter= 21 NonCon=     1 RMS=1.70D-07 Max=7.40D-06 NDo=     1
 LinEq1:  Iter= 22 NonCon=     1 RMS=9.12D-08 Max=3.79D-06 NDo=     1
 LinEq1:  Iter= 23 NonCon=     1 RMS=5.93D-08 Max=3.09D-06 NDo=     1
 LinEq1:  Iter= 24 NonCon=     1 RMS=3.15D-08 Max=1.47D-06 NDo=     1
 LinEq1:  Iter= 25 NonCon=     1 RMS=1.56D-08 Max=6.16D-07 NDo=     1
 LinEq1:  Iter= 26 NonCon=     1 RMS=9.08D-09 Max=3.57D-07 NDo=     1
 LinEq1:  Iter= 27 NonCon=     1 RMS=3.97D-09 Max=1.39D-07 NDo=     1
 LinEq1:  Iter= 28 NonCon=     1 RMS=2.09D-09 Max=9.32D-08 NDo=     1
 LinEq1:  Iter= 29 NonCon=     1 RMS=1.09D-09 Max=4.92D-08 NDo=     1
 LinEq1:  Iter= 30 NonCon=     1 RMS=6.21D-10 Max=3.10D-08 NDo=     1
 LinEq1:  Iter= 31 NonCon=     1 RMS=4.07D-10 Max=2.36D-08 NDo=     1
 LinEq1:  Iter= 32 NonCon=     1 RMS=2.12D-10 Max=6.93D-09 NDo=     1
 LinEq1:  Iter= 33 NonCon=     1 RMS=1.22D-10 Max=3.90D-09 NDo=     1
 LinEq1:  Iter= 34 NonCon=     1 RMS=5.81D-11 Max=3.20D-09 NDo=     1
 LinEq1:  Iter= 35 NonCon=     0 RMS=2.81D-11 Max=9.93D-10 NDo=     1
 Linear equations converged to 1.000D-10 1.000D-09 after    35 iterations.
 End of Minotr F.D. properties file   721 does not exist.
 End of Minotr F.D. properties file   722 does not exist.
 End of Minotr F.D. properties file   788 does not exist.

 **********************************************************************

            Population analysis using the SCF density.

 **********************************************************************

 Alpha  occ. eigenvalues --  -19.30295 -19.24909 -19.19507 -14.44596 -14.44593
 Alpha  occ. eigenvalues --  -10.39177 -10.36187 -10.36184 -10.34604 -10.34604
 Alpha  occ. eigenvalues --  -10.33312 -10.30800 -10.30794 -10.30646 -10.30203
 Alpha  occ. eigenvalues --  -10.29746 -10.29744 -10.29487 -10.29479 -10.29347
 Alpha  occ. eigenvalues --  -10.28810 -10.28801 -10.28218 -10.27995 -10.27979
 Alpha  occ. eigenvalues --  -10.27973 -10.27808 -10.27498 -10.26438 -10.26418
 Alpha  occ. eigenvalues --  -10.25898 -10.25891 -10.23944  -1.22864  -1.19500
 Alpha  occ. eigenvalues --   -1.10904  -1.05998  -1.05955  -0.99127  -0.97623
 Alpha  occ. eigenvalues --   -0.96423  -0.92467  -0.90520  -0.88296  -0.88132
 Alpha  occ. eigenvalues --   -0.87789  -0.86650  -0.84524  -0.84396  -0.84079
 Alpha  occ. eigenvalues --   -0.80597  -0.79545  -0.77155  -0.75762  -0.74349
 Alpha  occ. eigenvalues --   -0.74228  -0.73409  -0.73289  -0.72081  -0.72013
 Alpha  occ. eigenvalues --   -0.69105  -0.67931  -0.66511  -0.65114  -0.63724
 Alpha  occ. eigenvalues --   -0.62608  -0.61463  -0.61305  -0.59907  -0.58866
 Alpha  occ. eigenvalues --   -0.58311  -0.57598  -0.57528  -0.57243  -0.57239
 Alpha  occ. eigenvalues --   -0.56203  -0.56113  -0.55762  -0.55123  -0.54738
 Alpha  occ. eigenvalues --   -0.54573  -0.53827  -0.53364  -0.53036  -0.52588
 Alpha  occ. eigenvalues --   -0.52566  -0.52275  -0.50672  -0.49812  -0.49414
 Alpha  occ. eigenvalues --   -0.48917  -0.48818  -0.48728  -0.48152  -0.47885
 Alpha  occ. eigenvalues --   -0.47846  -0.47733  -0.47206  -0.46788  -0.46466
 Alpha  occ. eigenvalues --   -0.46367  -0.46175  -0.45950  -0.45712  -0.45676
 Alpha  occ. eigenvalues --   -0.45334  -0.43977  -0.43916  -0.42457  -0.41598
 Alpha  occ. eigenvalues --   -0.39191  -0.37424  -0.37251  -0.36183  -0.36012
 Alpha  occ. eigenvalues --   -0.34594  -0.33364  -0.30424
 Alpha virt. eigenvalues --   -0.19781  -0.14743  -0.12378  -0.11479  -0.10781
 Alpha virt. eigenvalues --   -0.10389  -0.06190  -0.05468  -0.05245  -0.04397
 Alpha virt. eigenvalues --   -0.04209  -0.04147  -0.03873  -0.02435  -0.02253
 Alpha virt. eigenvalues --   -0.01768  -0.00824  -0.00772  -0.00097  -0.00023
 Alpha virt. eigenvalues --    0.00081   0.00593   0.01382   0.01761   0.01975
 Alpha virt. eigenvalues --    0.02126   0.02628   0.02748   0.03032   0.03153
 Alpha virt. eigenvalues --    0.03672   0.04099   0.04380   0.04595   0.04807
 Alpha virt. eigenvalues --    0.05600   0.05655   0.05878   0.06485   0.06607
 Alpha virt. eigenvalues --    0.06760   0.07070   0.07182   0.08302   0.08683
 Alpha virt. eigenvalues --    0.08900   0.10158   0.11305   0.11486   0.12711
 Alpha virt. eigenvalues --    0.13262   0.13493   0.13758   0.14218   0.15211
 Alpha virt. eigenvalues --    0.15306   0.15925   0.16960   0.17806   0.17901
 Alpha virt. eigenvalues --    0.18134   0.18666   0.19858   0.20033   0.20390
 Alpha virt. eigenvalues --    0.20434   0.20591   0.20997   0.21062   0.22177
 Alpha virt. eigenvalues --    0.22243   0.22613   0.22772   0.23046   0.23433
 Alpha virt. eigenvalues --    0.23786   0.23975   0.24425   0.25349   0.25509
 Alpha virt. eigenvalues --    0.26625   0.26831   0.27777   0.27927   0.28285
 Alpha virt. eigenvalues --    0.28590   0.28813   0.29019   0.29341   0.29616
 Alpha virt. eigenvalues --    0.30075   0.30719   0.31052   0.31373   0.31672
 Alpha virt. eigenvalues --    0.31970   0.32250   0.32350   0.32669   0.33186
 Alpha virt. eigenvalues --    0.33762   0.33822   0.34619   0.34752   0.35295
 Alpha virt. eigenvalues --    0.35423   0.35539   0.36293   0.36907   0.37118
 Alpha virt. eigenvalues --    0.37951   0.38421   0.38450   0.39630   0.40111
 Alpha virt. eigenvalues --    0.40737   0.41764   0.42031   0.42593   0.43052
 Alpha virt. eigenvalues --    0.43198   0.43544   0.43951   0.44561   0.44862
 Alpha virt. eigenvalues --    0.45168   0.45999   0.46360   0.46720   0.46919
 Alpha virt. eigenvalues --    0.47262   0.47542   0.47945   0.48277   0.48575
 Alpha virt. eigenvalues --    0.48674   0.48810   0.49344   0.49731   0.50176
 Alpha virt. eigenvalues --    0.50516   0.50643   0.50735   0.50934   0.51164
 Alpha virt. eigenvalues --    0.51331   0.51666   0.52027   0.52358   0.53008
 Alpha virt. eigenvalues --    0.53305   0.53443   0.53853   0.54059   0.54328
 Alpha virt. eigenvalues --    0.54508   0.54645   0.54992   0.55327   0.55649
 Alpha virt. eigenvalues --    0.55807   0.56321   0.56503   0.56903   0.57627
 Alpha virt. eigenvalues --    0.57762   0.58555   0.59871   0.60164   0.60493
 Alpha virt. eigenvalues --    0.60865   0.61715   0.62102   0.62273   0.62916
 Alpha virt. eigenvalues --    0.63890   0.64815   0.65021   0.65293   0.66660
 Alpha virt. eigenvalues --    0.67016   0.67644   0.67787   0.68659   0.69401
 Alpha virt. eigenvalues --    0.69971   0.70488   0.70701   0.71425   0.71685
 Alpha virt. eigenvalues --    0.72891   0.73619   0.75094   0.75445   0.75760
 Alpha virt. eigenvalues --    0.77416   0.78655   0.79247   0.79619   0.80226
 Alpha virt. eigenvalues --    0.81636   0.81759   0.82796   0.83109   0.83595
 Alpha virt. eigenvalues --    0.84478   0.85381   0.86647   0.87028   0.87552
 Alpha virt. eigenvalues --    0.88964   0.90062   0.90436   0.90603   0.91274
 Alpha virt. eigenvalues --    0.91570   0.91912   0.92884   0.93628   0.94104
 Alpha virt. eigenvalues --    0.94553   0.94751   0.95320   0.96020   0.97190
 Alpha virt. eigenvalues --    0.98208   0.99129   1.00509   1.00870   1.01485
 Alpha virt. eigenvalues --    1.02752   1.03894   1.04478   1.05713   1.06876
 Alpha virt. eigenvalues --    1.07327   1.07656   1.08339   1.09303   1.09954
 Alpha virt. eigenvalues --    1.11061   1.11913   1.12595   1.13355   1.14407
 Alpha virt. eigenvalues --    1.15056   1.15432   1.16041   1.17493   1.18858
 Alpha virt. eigenvalues --    1.20439   1.20961   1.22323   1.22374   1.23557
 Alpha virt. eigenvalues --    1.24000   1.25183   1.25339   1.26877   1.27055
 Alpha virt. eigenvalues --    1.29595   1.29795   1.32379   1.33409   1.35146
 Alpha virt. eigenvalues --    1.35762   1.36728   1.38049   1.38414   1.38578
 Alpha virt. eigenvalues --    1.39697   1.39918   1.40059   1.40726   1.40814
 Alpha virt. eigenvalues --    1.41119   1.41593   1.41905   1.42178   1.43268
 Alpha virt. eigenvalues --    1.43925   1.44507   1.44729   1.45096   1.45253
 Alpha virt. eigenvalues --    1.45672   1.46398   1.46574   1.46914   1.47149
 Alpha virt. eigenvalues --    1.47784   1.48625   1.50177   1.50893   1.50946
 Alpha virt. eigenvalues --    1.51372   1.51858   1.52936   1.53277   1.53583
 Alpha virt. eigenvalues --    1.54304   1.54768   1.56349   1.57892   1.58453
 Alpha virt. eigenvalues --    1.58732   1.59502   1.61141   1.61542   1.61628
 Alpha virt. eigenvalues --    1.62208   1.63550   1.63669   1.64193   1.64921
 Alpha virt. eigenvalues --    1.65163   1.66411   1.66959   1.68241   1.68782
 Alpha virt. eigenvalues --    1.68923   1.69490   1.70255   1.71539   1.71805
 Alpha virt. eigenvalues --    1.72510   1.72816   1.72917   1.74400   1.74762
 Alpha virt. eigenvalues --    1.75111   1.77355   1.77376   1.77784   1.78797
 Alpha virt. eigenvalues --    1.80142   1.80471   1.80730   1.82353   1.82606
 Alpha virt. eigenvalues --    1.83897   1.83911   1.84478   1.85548   1.87491
 Alpha virt. eigenvalues --    1.87679   1.88128   1.90431   1.90840   1.90996
 Alpha virt. eigenvalues --    1.93311   1.94104   1.95111   1.97036   1.98232
 Alpha virt. eigenvalues --    2.00529   2.03580   2.04561   2.05109   2.06686
 Alpha virt. eigenvalues --    2.09051   2.11712   2.12463   2.12744   2.13910
 Alpha virt. eigenvalues --    2.17066   2.17772   2.19379   2.21198   2.21703
 Alpha virt. eigenvalues --    2.22341   2.22595   2.23618   2.24068   2.24850
 Alpha virt. eigenvalues --    2.25506   2.25858   2.25927   2.26894   2.26936
 Alpha virt. eigenvalues --    2.27120   2.27978   2.28342   2.29893   2.29962
 Alpha virt. eigenvalues --    2.30917   2.31205   2.31460   2.32210   2.32552
 Alpha virt. eigenvalues --    2.33192   2.33794   2.34492   2.34945   2.35786
 Alpha virt. eigenvalues --    2.35839   2.37348   2.39735   2.42315   2.43040
 Alpha virt. eigenvalues --    2.43323   2.43961   2.44216   2.45782   2.45950
 Alpha virt. eigenvalues --    2.48578   2.48710   2.50170   2.50550   2.51767
 Alpha virt. eigenvalues --    2.52092   2.54794   2.56439   2.57882   2.58297
 Alpha virt. eigenvalues --    2.59254   2.59803   2.62597   2.62815   2.63392
 Alpha virt. eigenvalues --    2.65750   2.67197   2.68367   2.69049   2.69633
 Alpha virt. eigenvalues --    2.70531   2.71349   2.73204   2.74311   2.76448
 Alpha virt. eigenvalues --    2.77764   2.78191   2.79459   2.80610   2.82754
 Alpha virt. eigenvalues --    2.84435   2.85710   2.85860   2.89543   2.89617
 Alpha virt. eigenvalues --    2.90696   2.92271   2.93093   2.93574   2.93907
 Alpha virt. eigenvalues --    2.94570   2.94819   2.95392   2.98406   2.99544
 Alpha virt. eigenvalues --    3.00231   3.00359   3.01295   3.01377   3.01572
 Alpha virt. eigenvalues --    3.03113   3.03842   3.04452   3.04540   3.04622
 Alpha virt. eigenvalues --    3.05720   3.06864   3.07840   3.08037   3.08595
 Alpha virt. eigenvalues --    3.08793   3.10784   3.11799   3.12065   3.13719
 Alpha virt. eigenvalues --    3.14504   3.16677   3.17041   3.17420   3.18451
 Alpha virt. eigenvalues --    3.19174   3.20321   3.21158   3.21255   3.22208
 Alpha virt. eigenvalues --    3.23066   3.24793   3.27125   3.27821   3.27905
 Alpha virt. eigenvalues --    3.30591   3.33029   3.33259   3.35653   3.38511
 Alpha virt. eigenvalues --    3.39992   3.40813   3.43767   3.43819   3.47881
 Alpha virt. eigenvalues --    3.49661   3.50354   3.52531   3.59234   3.61437
 Alpha virt. eigenvalues --    3.63421   3.66517   3.71269   3.73458   3.75320
 Alpha virt. eigenvalues --    3.76474   3.77424   3.79644   3.79804   3.86548
 Alpha virt. eigenvalues --    3.87827   3.91739   3.94743   3.94790   3.96199
 Alpha virt. eigenvalues --    4.11919   4.13132   4.18565   4.29274   4.30208
 Alpha virt. eigenvalues --    4.32729   4.48591   4.67546   4.69036   4.69253
 Alpha virt. eigenvalues --    4.77037   4.78762   4.84727   4.86223   4.87255
 Alpha virt. eigenvalues --    5.05690   5.12709   5.17481   5.52510   5.72403
 Alpha virt. eigenvalues --    5.81165  23.15793  23.26733  23.31271  23.32699
 Alpha virt. eigenvalues --   23.35254  23.37065  23.51390  23.52922  23.54837
 Alpha virt. eigenvalues --   23.54886  23.57484  23.64912  23.65649  23.69740
 Alpha virt. eigenvalues --   23.71781  23.72638  23.76098  23.81521  23.82269
 Alpha virt. eigenvalues --   23.87763  23.88855  23.93265  23.97469  23.98114
 Alpha virt. eigenvalues --   24.00234  24.01143  24.01571  24.05685  35.42358
 Alpha virt. eigenvalues --   35.42421  49.77741  49.78897  49.93136
          Condensed to atoms (all electrons):
 Mulliken charges:
               1
     1  C    0.105723
     2  C    0.409070
     3  C   -0.332523
     4  C    0.264500
     5  C   -0.067731
     6  C   -0.232554
     7  O   -0.317994
     8  C    0.264446
     9  C   -0.067490
    10  C    0.187555
    11  C   -0.332608
    12  C    0.409664
    13  C    0.105948
    14  C   -0.232851
    15  C   -0.145665
    16  C   -0.090000
    17  C   -0.147291
    18  C   -0.181951
    19  C   -0.173261
    20  C   -0.161996
    21  C    0.452361
    22  O   -0.327620
    23  C   -0.234786
    24  O   -0.358336
    25  C   -0.631713
    26  C   -0.719686
    27  C   -0.719678
    28  N   -0.663411
    29  C   -0.263245
    30  C   -0.670741
    31  N   -0.663650
    32  C   -0.263140
    33  C   -0.670779
    34  H    0.225065
    35  H    0.233827
    36  H    0.225049
    37  H    0.234012
    38  H    0.235013
    39  H    0.222757
    40  H    0.222520
    41  H    0.212694
    42  H    0.228835
    43  H    0.231793
    44  H    0.225966
    45  H    0.225329
    46  H    0.222239
    47  H    0.247597
    48  H    0.239113
    49  H    0.240335
    50  H    0.239267
    51  H    0.247848
    52  H    0.240215
    53  H    0.362421
    54  H    0.233939
    55  H    0.239552
    56  H    0.244119
    57  H    0.231600
    58  H    0.224151
    59  H    0.362529
    60  H    0.239710
    61  H    0.234011
    62  H    0.244148
    63  H    0.224138
    64  H    0.231640
 Sum of Mulliken charges =   1.00000
 Mulliken charges with hydrogens summed into heavy atoms:
               1
     1  C    0.105723
     2  C    0.409070
     3  C   -0.107458
     4  C    0.264500
     5  C   -0.067731
     6  C    0.001273
     7  O   -0.317994
     8  C    0.264446
     9  C   -0.067490
    10  C    0.187555
    11  C   -0.107559
    12  C    0.409664
    13  C    0.105948
    14  C    0.001161
    15  C   -0.145665
    16  C   -0.090000
    17  C    0.087722
    18  C    0.040806
    19  C    0.049259
    20  C    0.050697
    21  C    0.452361
    22  O   -0.327620
    23  C    0.225842
    24  O   -0.358336
    25  C    0.041820
    26  C    0.007359
    27  C    0.007651
    28  N   -0.300990
    29  C    0.210247
    30  C    0.029129
    31  N   -0.301120
    32  C    0.210581
    33  C    0.029147
 Electronic spatial extent (au):  <R**2>=          17738.6079
 Charge=              1.0000 electrons
 Dipole moment (field-independent basis, Debye):
    X=             -0.2491    Y=             -3.6356    Z=              1.0389  Tot=              3.7894
 Quadrupole moment (field-independent basis, Debye-Ang):
   XX=            -82.0615   YY=           -132.8317   ZZ=           -176.2280
   XY=             -1.1194   XZ=              1.4790   YZ=              4.9240
 Traceless Quadrupole moment (field-independent basis, Debye-Ang):
   XX=             48.3122   YY=             -2.4579   ZZ=            -45.8543
   XY=             -1.1194   XZ=              1.4790   YZ=              4.9240
 Octapole moment (field-independent basis, Debye-Ang**2):
  XXX=            -48.6187  YYY=            -13.9547  ZZZ=             -3.2545  XYY=             20.7980
  XXY=           -280.4488  XXZ=            -11.8054  XZZ=              3.3955  YZZ=             70.5014
  YYZ=            -37.7059  XYZ=            -10.7472
 Hexadecapole moment (field-independent basis, Debye-Ang**3):
 XXXX=          -9579.5180 YYYY=          -6695.0002 ZZZZ=          -2199.7167 XXXY=            -14.2282
 XXXZ=             87.3301 YYYX=            -59.8148 YYYZ=             53.0157 ZZZX=            -23.2527
 ZZZY=            -51.2598 XXYY=          -2641.5569 XXZZ=          -2709.6775 YYZZ=          -1387.1414
 XXYZ=             49.7834 YYXZ=              2.2170 ZZXY=             19.5804
 N-N= 3.320793761797D+03 E-N=-9.923975087725D+03  KE= 1.415388632248D+03
 Calling FoFJK, ICntrl=  10005127 FMM=T ISym2X=0 I1Cent= 0 IOpClX= 0 NMat=1 NMatS=1 NMatT=0.
 -------------------------------------------------------------------
 Center     Atomic                   Forces (Hartrees/Bohr)
 Number     Number              X              Y              Z
 -------------------------------------------------------------------
      1        6           0.007213506   -0.006030963   -0.002118278
      2        6          -0.000285000    0.010099795    0.003455808
      3        6          -0.000518911   -0.003313072   -0.001338360
      4        6          -0.000124849    0.004825091    0.002528776
      5        6           0.009321603   -0.006084168   -0.002797805
      6        6          -0.006292015    0.002622648    0.000958458
      7        8          -0.000255850   -0.008577669   -0.003490953
      8        6           0.000449320    0.004936971    0.002592205
      9        6          -0.009829630   -0.005495019   -0.003273503
     10        6           0.000669191    0.018366043    0.008691870
     11        6           0.000270902   -0.003378299   -0.001333674
     12        6           0.000908675    0.010117815    0.003508841
     13        6          -0.007583652   -0.005525423   -0.002437020
     14        6           0.006510624    0.002124654    0.001224663
     15        6          -0.000159651   -0.005390775   -0.001831001
     16        6           0.000012353    0.000826585    0.000591231
     17        6           0.000021606    0.000523899   -0.000510894
     18        6           0.000000126    0.000023291    0.000119352
     19        6          -0.000001191    0.000112131    0.000642970
     20        6           0.000071196    0.001958978    0.000622513
     21        6          -0.000105096   -0.001880199    0.001911671
     22        8           0.000073010    0.001102758   -0.001370862
     23        6          -0.000058258   -0.000099978    0.000785317
     24        8           0.000060549    0.000820711   -0.002064587
     25        6          -0.000018969    0.000014120   -0.000142011
     26        6          -0.001418083   -0.000161303   -0.000361003
     27        6           0.001411776   -0.000268346   -0.000304344
     28        7           0.006641619   -0.004519799    0.000591846
     29        6          -0.002084848   -0.002607973   -0.002301091
     30        6           0.000094183   -0.000274060   -0.000159210
     31        7          -0.007006323   -0.004029774    0.000293885
     32        6           0.001992227   -0.002766117   -0.002225726
     33        6          -0.000108570   -0.000264849   -0.000161777
     34        1          -0.000074141   -0.000340545   -0.000198731
     35        1          -0.000283908   -0.000008469   -0.000014054
     36        1           0.000056220   -0.000346245   -0.000195590
     37        1           0.000284379   -0.000028836   -0.000002614
     38        1           0.000007263    0.000272596    0.000136402
     39        1           0.000001949    0.000086337    0.000022508
     40        1           0.000002202    0.000246877    0.000206183
     41        1          -0.000002675   -0.000144166   -0.000240686
     42        1           0.000019915    0.000054399   -0.000079308
     43        1           0.000035230   -0.000048594   -0.000033785
     44        1           0.000039159    0.000020276   -0.000073820
     45        1          -0.000041654   -0.000005069    0.000078538
     46        1           0.000004727   -0.000005108    0.000037515
     47        1           0.000505028    0.000103000   -0.000256799
     48        1          -0.000014071   -0.000068601   -0.000018240
     49        1           0.000265802   -0.000134479    0.000293473
     50        1           0.000009004   -0.000068290   -0.000018006
     51        1          -0.000485899    0.000142272   -0.000277273
     52        1          -0.000290086   -0.000112324    0.000281450
     53        1           0.000131009   -0.000769334   -0.001083158
     54        1          -0.000576641    0.000963727    0.000886992
     55        1          -0.000137601    0.001008017    0.000111034
     56        1           0.000015936    0.000032866    0.000000607
     57        1           0.000081107    0.000030922    0.000030841
     58        1           0.000049658    0.000038384    0.000067528
     59        1          -0.000145231   -0.000761069   -0.001084901
     60        1           0.000208513    0.000999786    0.000119617
     61        1           0.000606372    0.000918478    0.000915690
     62        1          -0.000013571    0.000034898   -0.000000427
     63        1          -0.000049698    0.000042516    0.000064893
     64        1          -0.000079862    0.000038075    0.000026813
 -------------------------------------------------------------------
 Cartesian Forces:  Max     0.018366043 RMS     0.002888514

 GradGradGradGradGradGradGradGradGradGradGradGradGradGradGradGradGradGrad
 Berny optimization.
 FormGI is forming the generalized inverse of G from B-inverse, IUseBI=4.
 GSVD:  received Info=                   1 from GESDD.
 Internal  Forces:  Max     0.013616735 RMS     0.001642140
 Search for a local minimum.
 Step number   1 out of a maximum of  349
 All quantities printed in internal units (Hartrees-Bohrs-Radians)
 Mixed Optimization -- RFO/linear search
 Second derivative matrix not updated -- first step.
 ITU=  0
     Eigenvalues ---    0.00445   0.00445   0.00538   0.00615   0.00615
     Eigenvalues ---    0.00756   0.00757   0.00815   0.00827   0.00937
     Eigenvalues ---    0.01383   0.01399   0.01400   0.01497   0.01499
     Eigenvalues ---    0.01640   0.01642   0.01684   0.01715   0.01715
     Eigenvalues ---    0.01869   0.01873   0.01899   0.01918   0.02009
     Eigenvalues ---    0.02018   0.02027   0.02059   0.02091   0.02142
     Eigenvalues ---    0.02145   0.02147   0.02149   0.02155   0.02157
     Eigenvalues ---    0.02188   0.02193   0.02205   0.02208   0.02213
     Eigenvalues ---    0.02218   0.02220   0.02224   0.02232   0.02500
     Eigenvalues ---    0.04528   0.04528   0.04987   0.05482   0.05482
     Eigenvalues ---    0.05555   0.05578   0.05578   0.05605   0.05681
     Eigenvalues ---    0.05681   0.05813   0.06831   0.06832   0.07236
     Eigenvalues ---    0.07237   0.08900   0.08900   0.11676   0.12503
     Eigenvalues ---    0.12503   0.13826   0.15595   0.15602   0.15996
     Eigenvalues ---    0.15996   0.15998   0.15998   0.16000   0.16000
     Eigenvalues ---    0.16000   0.16000   0.16000   0.16000   0.16000
     Eigenvalues ---    0.16000   0.16000   0.16000   0.16000   0.16000
     Eigenvalues ---    0.16000   0.16000   0.16000   0.16000   0.16000
     Eigenvalues ---    0.16000   0.16000   0.21916   0.21916   0.22000
     Eigenvalues ---    0.22053   0.22164   0.22167   0.22488   0.23051
     Eigenvalues ---    0.23093   0.23921   0.23943   0.24475   0.24875
     Eigenvalues ---    0.24947   0.24947   0.24962   0.24984   0.24985
     Eigenvalues ---    0.24988   0.24989   0.24990   0.24997   0.25000
     Eigenvalues ---    0.25000   0.25000   0.25000   0.25000   0.29963
     Eigenvalues ---    0.29963   0.30633   0.31209   0.31211   0.32766
     Eigenvalues ---    0.32866   0.34328   0.34329   0.34382   0.34382
     Eigenvalues ---    0.34433   0.34441   0.34442   0.34481   0.34481
     Eigenvalues ---    0.34561   0.34664   0.34676   0.34677   0.34692
     Eigenvalues ---    0.34692   0.34772   0.34773   0.34791   0.34792
     Eigenvalues ---    0.34848   0.34901   0.35420   0.35438   0.35438
     Eigenvalues ---    0.35442   0.35487   0.35575   0.35577   0.35655
     Eigenvalues ---    0.35657   0.35757   0.36244   0.37332   0.37465
     Eigenvalues ---    0.39178   0.40243   0.40418   0.41530   0.41753
     Eigenvalues ---    0.42085   0.42399   0.43104   0.43116   0.43948
     Eigenvalues ---    0.45170   0.45972   0.45973   0.46197   0.46528
     Eigenvalues ---    0.47089   0.47615   0.47655   0.50187   0.50201
     Eigenvalues ---    0.51437   0.52589   0.52901   0.52927   0.57458
     Eigenvalues ---    0.99108
 RFO step:  Lambda=-2.36685071D-03 EMin= 4.45416590D-03
 Linear search not attempted -- first point.
 Iteration  1 RMS(Cart)=  0.03418194 RMS(Int)=  0.00008731
 Iteration  2 RMS(Cart)=  0.00036442 RMS(Int)=  0.00002030
 Iteration  3 RMS(Cart)=  0.00000004 RMS(Int)=  0.00002030
 Variable       Old X    -DE/DX   Delta X   Delta X   Delta X     New X
                                 (Linear)    (Quad)   (Total)
    R1        2.73147  -0.00283   0.00000  -0.00723  -0.00723   2.72424
    R2        2.59615   0.00851   0.00000   0.01703   0.01703   2.61318
    R3        2.85615  -0.00075   0.00000  -0.00237  -0.00237   2.85378
    R4        2.66935   0.00330   0.00000   0.00734   0.00734   2.67669
    R5        2.57047   0.00730   0.00000   0.01374   0.01374   2.58420
    R6        2.59739   0.00329   0.00000   0.00636   0.00636   2.60374
    R7        2.04970   0.00039   0.00000   0.00111   0.00111   2.05080
    R8        2.68074   0.00157   0.00000   0.00363   0.00363   2.68437
    R9        2.56689   0.00441   0.00000   0.00769   0.00767   2.57455
   R10        2.68400   0.00041   0.00000   0.00117   0.00117   2.68517
   R11        2.66163   0.01345   0.00000   0.03089   0.03091   2.69254
   R12        2.04751  -0.00003   0.00000  -0.00010  -0.00010   2.04742
   R13        2.56693   0.00441   0.00000   0.00768   0.00766   2.57460
   R14        2.68089   0.00147   0.00000   0.00340   0.00340   2.68429
   R15        2.59725   0.00335   0.00000   0.00648   0.00648   2.60373
   R16        2.66140   0.01362   0.00000   0.03126   0.03128   2.69267
   R17        2.68415   0.00037   0.00000   0.00106   0.00106   2.68521
   R18        2.82588  -0.00187   0.00000  -0.00564  -0.00564   2.82024
   R19        2.66949   0.00330   0.00000   0.00734   0.00734   2.67683
   R20        2.04969   0.00040   0.00000   0.00111   0.00111   2.05080
   R21        2.73158  -0.00287   0.00000  -0.00733  -0.00733   2.72425
   R22        2.57022   0.00733   0.00000   0.01378   0.01378   2.58400
   R23        2.59602   0.00856   0.00000   0.01712   0.01712   2.61314
   R24        2.85612  -0.00074   0.00000  -0.00235  -0.00235   2.85377
   R25        2.04749  -0.00003   0.00000  -0.00009  -0.00009   2.04739
   R26        2.66337   0.00201   0.00000   0.00470   0.00470   2.66807
   R27        2.64187   0.00147   0.00000   0.00328   0.00328   2.64515
   R28        2.64547   0.00083   0.00000   0.00186   0.00186   2.64733
   R29        2.82764   0.00095   0.00000   0.00288   0.00288   2.83052
   R30        2.62663   0.00004   0.00000  -0.00002  -0.00003   2.62660
   R31        2.04464   0.00015   0.00000   0.00043   0.00043   2.04507
   R32        2.63069  -0.00025   0.00000  -0.00069  -0.00069   2.63000
   R33        2.04891   0.00009   0.00000   0.00024   0.00024   2.04916
   R34        2.63232   0.00057   0.00000   0.00116   0.00116   2.63347
   R35        2.04963   0.00022   0.00000   0.00060   0.00060   2.05023
   R36        2.04999  -0.00001   0.00000  -0.00002  -0.00002   2.04997
   R37        2.53010   0.00128   0.00000   0.00221   0.00221   2.53231
   R38        2.28998   0.00034   0.00000   0.00035   0.00035   2.29033
   R39        2.75348  -0.00058   0.00000  -0.00153  -0.00153   2.75194
   R40        2.86719   0.00002   0.00000   0.00005   0.00005   2.86724
   R41        2.05836   0.00006   0.00000   0.00016   0.00016   2.05852
   R42        2.05922   0.00003   0.00000   0.00008   0.00008   2.05930
   R43        2.06605   0.00008   0.00000   0.00022   0.00022   2.06627
   R44        2.06223   0.00000   0.00000   0.00001   0.00001   2.06224
[...]
     45          1           0        0.863913    3.252975   -3.623317
     46          1           0        0.970449    5.011238   -3.393478
     47          1           0        5.771984   -0.269574   -0.270330
     48          1           0        5.057841    0.937913    0.792736
     49          1           0        5.723532   -0.540794    1.470028
     50          1           0       -4.569229    1.610494    0.598132
     51          1           0       -5.353903    0.722349   -0.693163
     52          1           0       -5.541952    0.205485    0.984718
     53          1           0        4.372330   -3.883479   -0.601884
     54          1           0        5.798348   -2.902316    1.577628
     55          1           0        6.641740   -2.337907    0.134340
     56          1           0        7.518679   -4.544833    0.809909
     57          1           0        6.713848   -4.689392   -0.751496
     58          1           0        5.908765   -5.260427    0.724731
     59          1           0       -4.424912   -3.207617   -1.150238
     60          1           0       -6.468077   -1.268067   -0.812345
     61          1           0       -6.120388   -2.030138    0.735667
     62          1           0       -7.893340   -3.274419   -0.506486
     63          1           0       -6.476099   -4.300569   -0.295589
     64          1           0       -6.801549   -3.533425   -1.864963
 ---------------------------------------------------------------------
 Rotational constants (GHZ):      0.1355165      0.0873673      0.0637056

 **********************************************************************

            Population analysis using the SCF density.

 **********************************************************************

 Alpha  occ. eigenvalues --  -19.30331 -19.24986 -19.19496 -14.45076 -14.43557
 Alpha  occ. eigenvalues --  -10.39319 -10.36912 -10.35520 -10.35152 -10.34148
 Alpha  occ. eigenvalues --  -10.33712 -10.31099 -10.30768 -10.30696 -10.30683
 Alpha  occ. eigenvalues --  -10.30103 -10.30004 -10.29842 -10.29841 -10.29479
 Alpha  occ. eigenvalues --  -10.29099 -10.28728 -10.28594 -10.28456 -10.28372
 Alpha  occ. eigenvalues --  -10.28183 -10.27963 -10.27456 -10.26739 -10.26158
 Alpha  occ. eigenvalues --  -10.26152 -10.25425 -10.23901  -1.22725  -1.19503
 Alpha  occ. eigenvalues --   -1.10829  -1.06292  -1.04884  -0.99213  -0.97565
 Alpha  occ. eigenvalues --   -0.96505  -0.92483  -0.90472  -0.88388  -0.88083
 Alpha  occ. eigenvalues --   -0.87507  -0.86949  -0.84610  -0.84554  -0.83642
 Alpha  occ. eigenvalues --   -0.80474  -0.79556  -0.77461  -0.75847  -0.74508
 Alpha  occ. eigenvalues --   -0.74093  -0.73496  -0.73066  -0.72283  -0.71741
 Alpha  occ. eigenvalues --   -0.69438  -0.67732  -0.66450  -0.65247  -0.63680
 Alpha  occ. eigenvalues --   -0.62691  -0.61512  -0.61029  -0.59428  -0.59251
 Alpha  occ. eigenvalues --   -0.58262  -0.57800  -0.57548  -0.57280  -0.56655
 Alpha  occ. eigenvalues --   -0.56272  -0.56230  -0.56011  -0.55098  -0.54846
 Alpha  occ. eigenvalues --   -0.54564  -0.53952  -0.53528  -0.52807  -0.52753
 Alpha  occ. eigenvalues --   -0.52677  -0.51980  -0.50618  -0.49929  -0.49446
 Alpha  occ. eigenvalues --   -0.48892  -0.48761  -0.48586  -0.48180  -0.47976
 Alpha  occ. eigenvalues --   -0.47752  -0.47459  -0.47388  -0.46821  -0.46658
 Alpha  occ. eigenvalues --   -0.46451  -0.46201  -0.45968  -0.45679  -0.45436
 Alpha  occ. eigenvalues --   -0.45373  -0.44463  -0.43741  -0.42473  -0.41267
 Alpha  occ. eigenvalues --   -0.39306  -0.37567  -0.36730  -0.36584  -0.36453
 Alpha  occ. eigenvalues --   -0.34495  -0.33110  -0.30284
 Alpha virt. eigenvalues --   -0.20612  -0.15040  -0.12579  -0.11954  -0.11022
 Alpha virt. eigenvalues --   -0.10239  -0.06304  -0.05598  -0.04858  -0.04613
 Alpha virt. eigenvalues --   -0.04469  -0.03998  -0.03890  -0.02501  -0.02437
 Alpha virt. eigenvalues --   -0.01656  -0.00932  -0.00688  -0.00248   0.00017
 Alpha virt. eigenvalues --    0.00255   0.00482   0.01366   0.01744   0.01989
 Alpha virt. eigenvalues --    0.02139   0.02399   0.02793   0.02900   0.03453
 Alpha virt. eigenvalues --    0.03620   0.04096   0.04343   0.04622   0.04857
 Alpha virt. eigenvalues --    0.05126   0.05541   0.05750   0.06382   0.06713
 Alpha virt. eigenvalues --    0.06900   0.07125   0.07264   0.08147   0.08642
 Alpha virt. eigenvalues --    0.09144   0.10157   0.11413   0.11774   0.12663
 Alpha virt. eigenvalues --    0.12765   0.13018   0.13866   0.14448   0.14965
 Alpha virt. eigenvalues --    0.15164   0.16012   0.16465   0.17663   0.17775
 Alpha virt. eigenvalues --    0.18175   0.18476   0.19347   0.19540   0.20209
 Alpha virt. eigenvalues --    0.20323   0.20526   0.21356   0.21457   0.21965
 Alpha virt. eigenvalues --    0.21997   0.22513   0.22790   0.23064   0.23523
 Alpha virt. eigenvalues --    0.23836   0.24231   0.24815   0.25215   0.26059
 Alpha virt. eigenvalues --    0.26329   0.26905   0.27310   0.27914   0.28016
 Alpha virt. eigenvalues --    0.28580   0.28793   0.29179   0.29367   0.29887
 Alpha virt. eigenvalues --    0.30238   0.30616   0.30990   0.31342   0.31746
 Alpha virt. eigenvalues --    0.32075   0.32430   0.32528   0.32703   0.33123
 Alpha virt. eigenvalues --    0.33700   0.34132   0.34639   0.34893   0.35027
 Alpha virt. eigenvalues --    0.35380   0.35841   0.36279   0.36723   0.37482
 Alpha virt. eigenvalues --    0.37664   0.38070   0.38609   0.39031   0.39554
 Alpha virt. eigenvalues --    0.40515   0.41176   0.41880   0.42287   0.42593
 Alpha virt. eigenvalues --    0.42923   0.43264   0.43840   0.44325   0.44827
 Alpha virt. eigenvalues --    0.45491   0.45859   0.46215   0.46308   0.46647
 Alpha virt. eigenvalues --    0.47327   0.47406   0.47655   0.48073   0.48733
 Alpha virt. eigenvalues --    0.48812   0.49024   0.49259   0.49450   0.49838
 Alpha virt. eigenvalues --    0.50229   0.50421   0.50726   0.50978   0.51101
 Alpha virt. eigenvalues --    0.51109   0.51469   0.51828   0.51995   0.52224
 Alpha virt. eigenvalues --    0.52625   0.53058   0.53525   0.53904   0.54095
 Alpha virt. eigenvalues --    0.54327   0.54660   0.54927   0.54957   0.55113
 Alpha virt. eigenvalues --    0.55659   0.56089   0.56551   0.57133   0.57516
 Alpha virt. eigenvalues --    0.58219   0.58899   0.59176   0.59990   0.60234
 Alpha virt. eigenvalues --    0.61246   0.61687   0.61966   0.62884   0.62989
 Alpha virt. eigenvalues --    0.63352   0.64337   0.65111   0.65373   0.66124
 Alpha virt. eigenvalues --    0.66932   0.67091   0.67487   0.67570   0.68921
 Alpha virt. eigenvalues --    0.69783   0.70488   0.70774   0.71352   0.71790
 Alpha virt. eigenvalues --    0.72375   0.74447   0.75165   0.76060   0.76101
 Alpha virt. eigenvalues --    0.77248   0.77709   0.79156   0.79430   0.80216
 Alpha virt. eigenvalues --    0.81530   0.82436   0.82928   0.83161   0.83387
 Alpha virt. eigenvalues --    0.84576   0.85038   0.86078   0.86745   0.87662
 Alpha virt. eigenvalues --    0.88468   0.89403   0.89907   0.90575   0.91289
 Alpha virt. eigenvalues --    0.92110   0.93068   0.93219   0.93459   0.93762
 Alpha virt. eigenvalues --    0.94248   0.95552   0.96237   0.96913   0.97424
 Alpha virt. eigenvalues --    0.98768   1.00009   1.00321   1.00765   1.01379
 Alpha virt. eigenvalues --    1.02644   1.03185   1.04805   1.06107   1.06859
 Alpha virt. eigenvalues --    1.07052   1.07921   1.08627   1.09387   1.09874
 Alpha virt. eigenvalues --    1.10614   1.11024   1.13105   1.13910   1.14485
 Alpha virt. eigenvalues --    1.15407   1.15715   1.17530   1.18202   1.19445
 Alpha virt. eigenvalues --    1.20106   1.20711   1.21084   1.22839   1.23401
 Alpha virt. eigenvalues --    1.24334   1.24667   1.25350   1.26520   1.27429
 Alpha virt. eigenvalues --    1.28888   1.29560   1.31809   1.32936   1.34688
 Alpha virt. eigenvalues --    1.35389   1.36664   1.37089   1.38434   1.38962
 Alpha virt. eigenvalues --    1.39267   1.39795   1.39951   1.40391   1.40932
 Alpha virt. eigenvalues --    1.41306   1.41439   1.41642   1.42232   1.42825
 Alpha virt. eigenvalues --    1.43306   1.43691   1.44392   1.44678   1.45098
 Alpha virt. eigenvalues --    1.45537   1.45865   1.46162   1.46580   1.47006
 Alpha virt. eigenvalues --    1.47944   1.48781   1.49817   1.50494   1.51250
 Alpha virt. eigenvalues --    1.51553   1.51797   1.52297   1.53226   1.53557
 Alpha virt. eigenvalues --    1.53821   1.54372   1.56393   1.57522   1.58234
 Alpha virt. eigenvalues --    1.59196   1.60006   1.61218   1.61581   1.62035
 Alpha virt. eigenvalues --    1.62418   1.63086   1.63891   1.64169   1.64518
 Alpha virt. eigenvalues --    1.65298   1.66850   1.67288   1.67823   1.68504
 Alpha virt. eigenvalues --    1.68768   1.69490   1.70225   1.71199   1.71545
 Alpha virt. eigenvalues --    1.72012   1.72762   1.73404   1.74712   1.75225
 Alpha virt. eigenvalues --    1.75350   1.76405   1.77257   1.78112   1.79085
 Alpha virt. eigenvalues --    1.79596   1.80615   1.81232   1.82145   1.82679
 Alpha virt. eigenvalues --    1.83474   1.83678   1.84756   1.85541   1.86435
 Alpha virt. eigenvalues --    1.87498   1.88094   1.89052   1.90436   1.91037
 Alpha virt. eigenvalues --    1.92334   1.93566   1.95237   1.95809   1.97486
 Alpha virt. eigenvalues --    2.00020   2.02368   2.03923   2.05178   2.06911
 Alpha virt. eigenvalues --    2.08979   2.11493   2.12777   2.13282   2.14426
 Alpha virt. eigenvalues --    2.16825   2.17980   2.19344   2.19557   2.21132
 Alpha virt. eigenvalues --    2.21759   2.22585   2.23211   2.23788   2.24353
 Alpha virt. eigenvalues --    2.24914   2.25888   2.26142   2.26391   2.26872
 Alpha virt. eigenvalues --    2.27094   2.27295   2.27635   2.29443   2.29749
 Alpha virt. eigenvalues --    2.30444   2.31210   2.31373   2.31742   2.32410
 Alpha virt. eigenvalues --    2.32895   2.34023   2.34270   2.34903   2.35915
 Alpha virt. eigenvalues --    2.36329   2.37374   2.38588   2.41308   2.42394
 Alpha virt. eigenvalues --    2.42735   2.43633   2.44045   2.45131   2.46155
 Alpha virt. eigenvalues --    2.47345   2.48420   2.48870   2.49968   2.50634
 Alpha virt. eigenvalues --    2.52045   2.55945   2.56114   2.57690   2.57966
 Alpha virt. eigenvalues --    2.59326   2.60406   2.62320   2.62857   2.63039
 Alpha virt. eigenvalues --    2.63759   2.66857   2.67537   2.68396   2.69414
 Alpha virt. eigenvalues --    2.69797   2.71788   2.72897   2.74003   2.76531
 Alpha virt. eigenvalues --    2.76868   2.78343   2.78587   2.80921   2.82693
 Alpha virt. eigenvalues --    2.84523   2.84953   2.86145   2.86734   2.88760
 Alpha virt. eigenvalues --    2.90258   2.91517   2.91988   2.92736   2.93715
 Alpha virt. eigenvalues --    2.94448   2.94933   2.96641   2.97544   2.98757
 Alpha virt. eigenvalues --    2.99093   2.99585   3.00370   3.00889   3.01655
 Alpha virt. eigenvalues --    3.02256   3.03736   3.04114   3.04401   3.04955
 Alpha virt. eigenvalues --    3.05410   3.06722   3.07543   3.08239   3.08580
 Alpha virt. eigenvalues --    3.09475   3.09974   3.11414   3.12140   3.13572
 Alpha virt. eigenvalues --    3.14532   3.16406   3.17001   3.17264   3.18743
 Alpha virt. eigenvalues --    3.19034   3.19633   3.20599   3.21430   3.22104
 Alpha virt. eigenvalues --    3.23409   3.24835   3.26793   3.26895   3.27629
 Alpha virt. eigenvalues --    3.29138   3.32087   3.34134   3.34798   3.37062
 Alpha virt. eigenvalues --    3.38402   3.41071   3.43090   3.44741   3.47749
 Alpha virt. eigenvalues --    3.49375   3.49809   3.52805   3.58227   3.59962
 Alpha virt. eigenvalues --    3.62798   3.66939   3.71310   3.73057   3.74447
 Alpha virt. eigenvalues --    3.76509   3.77257   3.79056   3.79474   3.84611
 Alpha virt. eigenvalues --    3.88420   3.90186   3.94288   3.94575   3.95110
 Alpha virt. eigenvalues --    4.10011   4.14026   4.18409   4.29319   4.31258
 Alpha virt. eigenvalues --    4.35265   4.46809   4.65868   4.68355   4.69488
 Alpha virt. eigenvalues --    4.76531   4.80037   4.83414   4.86965   4.87309
 Alpha virt. eigenvalues --    5.06697   5.12766   5.18137   5.52279   5.72230
 Alpha virt. eigenvalues --    5.79676  23.15300  23.26592  23.29955  23.32799
 Alpha virt. eigenvalues --   23.35133  23.36845  23.51226  23.52679  23.54482
 Alpha virt. eigenvalues --   23.55760  23.57454  23.63065  23.68027  23.70009
 Alpha virt. eigenvalues --   23.70528  23.71821  23.75935  23.77277  23.81003
 Alpha virt. eigenvalues --   23.87748  23.88858  23.93025  23.94143  23.95981
 Alpha virt. eigenvalues --   23.96927  23.99848  24.00458  24.03515  35.41247
 Alpha virt. eigenvalues --   35.42411  49.77526  49.78747  49.93290
          Condensed to atoms (all electrons):
 Mulliken charges:
               1
     1  C    0.109585
     2  C    0.379555
     3  C   -0.315808
     4  C    0.252969
     5  C   -0.120030
     6  C   -0.239359
     7  O   -0.316556
     8  C    0.245098
     9  C   -0.001823
    10  C    0.208776
    11  C   -0.342675
    12  C    0.410602
    13  C    0.111602
    14  C   -0.259086
    15  C   -0.073197
    16  C   -0.130638
    17  C   -0.143307
    18  C   -0.177354
    19  C   -0.169300
    20  C   -0.188055
    21  C    0.456660
    22  O   -0.329507
    23  C   -0.234544
    24  O   -0.359273
    25  C   -0.631687
    26  C   -0.715203
    27  C   -0.717159
    28  N   -0.641165
    29  C   -0.273698
    30  C   -0.669306
    31  N   -0.678341
    32  C   -0.255552
    33  C   -0.669292
    34  H    0.229575
    35  H    0.241190
    36  H    0.222089
    37  H    0.232133
    38  H    0.237574
    39  H    0.225101
    40  H    0.224232
    41  H    0.220744
    42  H    0.227896
    43  H    0.230254
    44  H    0.225845
    45  H    0.227116
    46  H    0.222701
    47  H    0.250092
    48  H    0.239993
    49  H    0.240531
    50  H    0.236526
    51  H    0.246465
    52  H    0.240014
    53  H    0.361055
    54  H    0.233512
    55  H    0.240425
    56  H    0.244937
    57  H    0.232310
    58  H    0.224497
    59  H    0.362676
    60  H    0.233107
    61  H    0.229623
    62  H    0.241964
    63  H    0.224027
    64  H    0.228864
 Sum of Mulliken charges =   1.00000
 Mulliken charges with hydrogens summed into heavy atoms:
               1
     1  C    0.109585
     2  C    0.379555
     3  C   -0.086233
     4  C    0.252969
     5  C   -0.120030
     6  C    0.001831
     7  O   -0.316556
     8  C    0.245098
     9  C   -0.001823
    10  C    0.208776
    11  C   -0.120586
    12  C    0.410602
    13  C    0.111602
    14  C   -0.026953
    15  C   -0.073197
    16  C   -0.130638
    17  C    0.094268
    18  C    0.047747
    19  C    0.054932
    20  C    0.032688
    21  C    0.456660
    22  O   -0.329507
    23  C    0.223606
    24  O   -0.359273
    25  C    0.043975
    26  C    0.015414
    27  C    0.005846
    28  N   -0.280110
    29  C    0.200240
    30  C    0.032438
    31  N   -0.315665
    32  C    0.207178
    33  C    0.025562
 Electronic spatial extent (au):  <R**2>=          17904.6094
 Charge=              1.0000 electrons
 Dipole moment (field-independent basis, Debye):
    X=              1.3836    Y=             -3.3247    Z=              1.3028  Tot=              3.8296
 Quadrupole moment (field-independent basis, Debye-Ang):
   XX=            -85.9974   YY=           -129.6334   ZZ=           -176.7982
   XY=            -11.2991   XZ=             12.4115   YZ=              5.1067
 Traceless Quadrupole moment (field-independent basis, Debye-Ang):
   XX=             44.8123   YY=              1.1763   ZZ=            -45.9886
   XY=            -11.2991   XZ=             12.4115   YZ=              5.1067
 Octapole moment (field-independent basis, Debye-Ang**2):
  XXX=             -6.0677  YYY=            -18.0156  ZZZ=             -0.5556  XYY=             35.5260
  XXY=           -273.9970  XXZ=             -2.0464  XZZ=              1.6295  YZZ=             66.0369
  YYZ=            -30.3410  XYZ=             -5.5621
 Hexadecapole moment (field-independent basis, Debye-Ang**3):
 XXXX=          -9710.8212 YYYY=          -6997.3447 ZZZZ=          -2213.4062 XXXY=            208.0238
 XXXZ=           -293.6657 YYYX=            215.9683 YYYZ=            104.5178 ZZZX=           -498.7313
 ZZZY=             16.0988 XXYY=          -2635.4090 XXZZ=          -2640.0734 YYZZ=          -1438.1480
 XXYZ=             31.5481 YYXZ=            -62.5096 ZZXY=            179.2914
 N-N= 3.314609198165D+03 E-N=-9.911357342823D+03  KE= 1.415196770848D+03
 1\1\GINC-KFBOY\FOpt\RB3LYP TD-FC\6-311G(d)\C28H31N2O3(1+)\ZITO\30-Oct-
 2019\0\\# int=ultrafine opt=tight b3lyp/6-311g* td(nstates=5) nosymm g
 uess=read\\R6G S1 S2 and S3\\1,1\C,3.8019797109,-0.7685906242,0.463587
 6171\C,3.629987592,-2.1325379892,0.0180435639\C,2.3264345291,-2.577487
 3692,-0.2835818788\C,1.2328987913,-1.7674742198,-0.0993200611\C,1.3429
 983589,-0.4349031357,0.4237517972\C,2.6835858802,0.0083883083,0.655335
 4621\O,0.0170088894,-2.2974079097,-0.4275371536\C,-1.1044210437,-1.557
 5926934,-0.2367263392\C,-1.0929836553,-0.2613986632,0.2598800677\C,0.2
 061734905,0.3587031293,0.5966179519\C,-2.3026156589,-2.2027934939,-0.5
 605651548\C,-3.5555094336,-1.5571787545,-0.382702743\C,-3.5768436218,-
 0.2265804946,0.1188010799\C,-2.3519918745,0.3554985442,0.4239284906\C,
 0.2757564188,1.7021888792,1.2033157046\C,-0.0881624205,2.8965755867,0.
 5295242832\C,-0.0438561177,4.1202520268,1.2103152135\C,0.3552230251,4.
 1870697711,2.5388151022\C,0.7370324707,3.0216025923,3.2021376687\C,0.7
 025480734,1.8005827695,2.5385570138\C,-0.4304071379,2.8544585211,-0.91
 99248785\O,-0.6313460003,4.0760835175,-1.438570824\C,-0.9456025959,4.1
 609220768,-2.8566524043\O,-0.5153471251,1.8288017394,-1.5657038532\C,0
 .3153410369,4.1931242943,-3.7004947728\C,5.1612501831,-0.1345418917,0.
 6262643887\C,-4.8309950838,0.6073923451,0.2602629835\N,4.6620955346,-3
 .0048760203,-0.195782684\C,5.948966235,-3.093265918,0.5098223514\C,6.5
 513608301,-4.479106338,0.3091770099\N,-4.6467856285,-2.3181761294,-0.7
 240613992\C,-6.0512233129,-2.166172608,-0.3496268994\C,-6.8444341256,-
 3.3930470474,-0.7816210835\H,2.1634408362,-3.5854809565,-0.6506955896\
 H,2.8211450437,1.0376451737,0.962234504\H,-2.2519434738,-3.220827917,-
 0.9310832442\H,-2.3627757945,1.3683533038,0.8090672483\H,-0.3137003318
 ,5.0219684171,0.6765576497\H,0.3775980999,5.1424701237,3.0509277998\H,
 1.0528704905,3.0606438178,4.2392279851\H,0.9780355155,0.8945659785,3.0
 673905656\H,-1.5126773685,5.0872804617,-2.9419708005\H,-1.5848836049,3
 .3185511019,-3.1206591023\H,0.0523946856,4.3460892359,-4.7507385306\H,
 0.8639131082,3.2529754617,-3.6233173979\H,0.9704485893,5.0112380768,-3
 .3934776068\H,5.771984019,-0.2695736439,-0.2703299453\H,5.0578408948,0
 .9379131927,0.7927356083\H,5.723531743,-0.5407943415,1.4700282209\H,-4
 .5692290421,1.6104944422,0.5981321874\H,-5.3539028532,0.7223487341,-0.
 6931629875\H,-5.5419519751,0.2054853537,0.9847183857\H,4.3723303559,-3
 .883479314,-0.6018837427\H,5.7983480519,-2.9023162586,1.5776275124\H,6
 .6417400694,-2.3379066896,0.1343402401\H,7.5186793982,-4.5448326542,0.
 8099094859\H,6.7138482014,-4.6893916484,-0.7514961312\H,5.9087652783,-
 5.2604270139,0.7247308074\H,-4.4249118384,-3.2076170525,-1.1502383752\
 H,-6.4680771995,-1.2680672622,-0.8123448157\H,-6.1203879043,-2.0301381
 41,0.7356674321\H,-7.8933401657,-3.2744187836,-0.5064857214\H,-6.47609
 87667,-4.3005689217,-0.2955893247\H,-6.8015492762,-3.5334250779,-1.864
 9629377\\Version=EM64L-G09RevD.01\HF=-1420.9659956\RMSD=2.327e-09\RMSF
 =1.149e-07\Dipole=-0.9864534,-2.202199,0.1648251\PG=C01 [X(C28H31N2O3)
 ]\\@


 YOU CANNOT THROW TO THE GROUND THE LETTERS OF
 THE GREEK ALPHABET AND PICK UP THE ILIAD.
        - RUFUS CHOATE, 1799-1859
 Job cpu time:      15 days  0 hours 12 minutes  2.9 seconds.
 File lengths (MBytes):  RWF=   1037 Int=      0 D2E=      0 Chk=    124 Scr=      1
 Normal termination of Gaussian 09 at Wed Oct 30 05:52:22 2019.
