[Molden Format] 
[Atoms] Angs                                                                    
   N     1    7             1.9990009997       -0.0250056776        0.5860055113
   C     2    6             0.7810016508       -0.0709994455        1.3680010283
   C     3    6             0.6509990588        0.8539992425        2.4149994737
   C     4    6            -0.4749996589        0.7950011783        3.2319981225
   C     5    6            -1.4450006612       -0.1860000245        3.0200022454
   C     6    6            -1.2950029423       -1.1150025237        1.9890007600
   C     7    6            -0.1829959535       -1.0660004492        1.1539989488
   H     8    1             1.4270006157        1.6060005269        2.5720006949
   H     9    1            -0.5930002319        1.5140010523        4.0490019107
   H    10    1            -2.3239987737       -0.2340025983        3.6729992641
   H    11    1            -2.0549973879       -1.8899979243        1.8360028844
   H    12    1            -0.0560005046       -1.7949999831        0.3510007118
   N    13    7             2.0059987901        0.0190071459       -0.6020053246
   C    14    6             0.7960028158        0.0579988227       -1.3980003977
   C    15    6             0.6830009039       -0.8679989777       -2.4459996605
   C    16    6            -0.4330112635       -0.8150036805       -3.2756754910
   C    17    6            -1.4120018390        0.1590013552       -3.0749995213
   C    18    6            -1.2800360543        1.0889988147       -2.0416754910
   C    19    6            -0.1760012854        1.0460027017       -1.1940012490
   H    20    1             1.4659994172       -1.6149995842       -2.5949988545
   H    21    1            -0.5379962482       -1.5350008052       -4.0940025092
   H    22    1            -2.2839978078        0.2013245090       -3.7370119487
   H    23    1            -2.0459987805        1.8579991788       -1.8960028380
   H    24    1            -0.0639943446        1.7760018703       -0.3903245090
[STO]                                                                           
    1    0    0    0    1             1.3317523300        0.6666887082          
    1    1    0    0    0             1.3317523300        1.1547387155          
    1    0    1    0    0             1.3317523300        1.1547387155          
    1    0    0    1    0             1.3317523300        1.1547387155          
    2    0    0    0    1             1.4203689200        0.7831903684          
    2    1    0    0    0             1.4203689200        1.3565255101          
    2    0    1    0    0             1.4203689200        1.3565255101          
    2    0    0    1    0             1.4203689200        1.3565255101          
    3    0    0    0    1             1.4203689200        0.7831903684          
    3    1    0    0    0             1.4203689200        1.3565255101          
    3    0    1    0    0             1.4203689200        1.3565255101          
    3    0    0    1    0             1.4203689200        1.3565255101          
    4    0    0    0    1             1.4203689200        0.7831903684          
    4    1    0    0    0             1.4203689200        1.3565255101          
    4    0    1    0    0             1.4203689200        1.3565255101          
    4    0    0    1    0             1.4203689200        1.3565255101          
    5    0    0    0    1             1.4203689200        0.7831903684          
    5    1    0    0    0             1.4203689200        1.3565255101          
    5    0    1    0    0             1.4203689200        1.3565255101          
    5    0    0    1    0             1.4203689200        1.3565255101          
    6    0    0    0    1             1.4203689200        0.7831903684          
    6    1    0    0    0             1.4203689200        1.3565255101          
    6    0    1    0    0             1.4203689200        1.3565255101          
    6    0    0    1    0             1.4203689200        1.3565255101          
    7    0    0    0    1             1.4203689200        0.7831903684          
    7    1    0    0    0             1.4203689200        1.3565255101          
    7    0    1    0    0             1.4203689200        1.3565255101          
    7    0    0    1    0             1.4203689200        1.3565255101          
    8    0    0    0    0             1.4738648100        1.0095121222          
    9    0    0    0    0             1.4738648100        1.0095121222          
   10    0    0    0    0             1.4738648100        1.0095121222          
   11    0    0    0    0             1.4738648100        1.0095121222          
   12    0    0    0    0             1.4738648100        1.0095121222          
   13    0    0    0    1             1.3317523300        0.6666887082          
   13    1    0    0    0             1.3317523300        1.1547387155          
   13    0    1    0    0             1.3317523300        1.1547387155          
   13    0    0    1    0             1.3317523300        1.1547387155          
   14    0    0    0    1             1.4203689200        0.7831903684          
   14    1    0    0    0             1.4203689200        1.3565255101          
   14    0    1    0    0             1.4203689200        1.3565255101          
   14    0    0    1    0             1.4203689200        1.3565255101          
   15    0    0    0    1             1.4203689200        0.7831903684          
   15    1    0    0    0             1.4203689200        1.3565255101          
   15    0    1    0    0             1.4203689200        1.3565255101          
   15    0    0    1    0             1.4203689200        1.3565255101          
   16    0    0    0    1             1.4203689200        0.7831903684          
   16    1    0    0    0             1.4203689200        1.3565255101          
   16    0    1    0    0             1.4203689200        1.3565255101          
   16    0    0    1    0             1.4203689200        1.3565255101          
   17    0    0    0    1             1.4203689200        0.7831903684          
   17    1    0    0    0             1.4203689200        1.3565255101          
   17    0    1    0    0             1.4203689200        1.3565255101          
   17    0    0    1    0             1.4203689200        1.3565255101          
   18    0    0    0    1             1.4203689200        0.7831903684          
   18    1    0    0    0             1.4203689200        1.3565255101          
   18    0    1    0    0             1.4203689200        1.3565255101          
   18    0    0    1    0             1.4203689200        1.3565255101          
   19    0    0    0    1             1.4203689200        0.7831903684          
   19    1    0    0    0             1.4203689200        1.3565255101          
   19    0    1    0    0             1.4203689200        1.3565255101          
   19    0    0    1    0             1.4203689200        1.3565255101          
   20    0    0    0    0             1.4738648100        1.0095121222          
   21    0    0    0    0             1.4738648100        1.0095121222          
   22    0    0    0    0             1.4738648100        1.0095121222          
   23    0    0    0    0             1.4738648100        1.0095121222          
   24    0    0    0    0             1.4738648100        1.0095121222          
[MO]                                                                            
 Sym= A                                                                         
 Ene=       -37.9453863232                                                      
 Spin = Alpha                                                                   
 Occup =   2.0                                                                  
    1             0.6424753267                                                  
    2            -0.0597677625                                                  
    3             0.0065547832                                                  
    4            -0.1856407982                                                  
    5             0.1792714211                                                  
    6             0.0760882721                                                  
    7             0.0037897493                                                  
    8            -0.0800805866                                                  
    9             0.0329430637                                                  
   10             0.0147063037                                                  
   11            -0.0078712654                                                  
   12            -0.0224885973                                                  
   13             0.0003542985                                                  
   14             0.0003029638                                                  
   15            -0.0006199839                                                  
   16            -0.0011937742                                                  
   17             0.0000208895                                                  
   18             0.0002688201                                                  
   19            -0.0000146247                                                  
   20            -0.0002035848                                                  
   21             0.0008037081                                                  
   22             0.0012371334                                                  
   23             0.0011135870                                                  
   24            -0.0003798663                                                  
   25             0.0415196996                                                  
   26             0.0284836743                                                  
   27             0.0144818836                                                  
   28            -0.0126115677                                                  
   29             0.0074541520                                                  
   30            -0.0000053295                                                  
   31            -0.0000680217                                                  
   32             0.0000958239                                                  
   33             0.0095606092                                                  
   34             0.6423141977                                                  
   35            -0.0619036935                                                  
   36            -0.0069117279                                                  
   37             0.1849795127                                                  
   38             0.1791077599                                                  
   39             0.0751258702                                                  
   40            -0.0033440095                                                  
   41             0.0808759134                                                  
   42             0.0329079404                                                  
   43             0.0143927632                                                  
   44             0.0079528352                                                  
   45             0.0226276915                                                  
   46             0.0003560150                                                  
   47             0.0002876007                                                  
   48             0.0006229325                                                  
   49             0.0011976624                                                  
   50             0.0000196543                                                  
   51             0.0002655830                                                  
   52             0.0000162560                                                  
   53             0.0002056638                                                  
   54             0.0007968501                                                  
   55             0.0012332571                                                  
   56            -0.0011027896                                                  
   57             0.0003912650                                                  
   58             0.0415555335                                                  
   59             0.0284551950                                                  
   60            -0.0143162510                                                  
   61             0.0129407554                                                  
   62             0.0074434869                                                  
   63            -0.0000052034                                                  
   64            -0.0000680957                                                  
   65             0.0000956688                                                  
   66             0.0095500578                                                  
 Sym= A                                                                         
 Ene=       -28.8546198166                                                      
 Spin = Alpha                                                                   
 Occup =   2.0                                                                  
    1            -0.2034086738                                                  
    2             0.0534694167                                                  
    3             0.0039224164                                                  
    4            -0.0945089699                                                  
    5            -0.3669858504                                                  
    6             0.0011061657                                                  
    7            -0.0005619547                                                  
    8            -0.0230424790                                                  
    9            -0.2810684392                                                  
   10             0.0222146584                                                  
   11             0.0515555961                                                  
   12             0.0322093235                                                  
   13            -0.2210376177                                                  
   14            -0.0141175971                                                  
   15             0.0336867793                                                  
   16             0.0441022680                                                  
   17            -0.2056063902                                                  
   18            -0.0434696476                                                  
   19            -0.0026528070                                                  
   20             0.0311625588                                                  
   21            -0.2147245651                                                  
   22            -0.0426726071                                                  
   23            -0.0363114170                                                  
   24            -0.0034642120                                                  
   25            -0.2607565071                                                  
   26            -0.0180474392                                                  
   27            -0.0473424385                                                  
   28            -0.0407848913                                                  
   29            -0.0548418584                                                  
   30            -0.0394646677                                                  
   31            -0.0363758225                                                  
   32            -0.0379765230                                                  
   33            -0.0462512728                                                  
   34             0.2034744323                                                  
   35            -0.0523442891                                                  
   36             0.0036050963                                                  
   37            -0.0949563999                                                  
   38             0.3671315911                                                  
   39            -0.0009808249                                                  
   40            -0.0006150051                                                  
   41            -0.0230712651                                                  
   42             0.2813927301                                                  
   43            -0.0229561636                                                  
   44             0.0514903197                                                  
   45             0.0318813321                                                  
   46             0.2214188441                                                  
   47             0.0134460911                                                  
   48             0.0337385387                                                  
   49             0.0443534037                                                  
   50             0.2056120461                                                  
   51             0.0431588684                                                  
   52            -0.0024666754                                                  
   53             0.0316192396                                                  
   54             0.2144654798                                                  
   55             0.0428989037                                                  
   56            -0.0360302816                                                  
   57            -0.0030136290                                                  
   58             0.2607788086                                                  
   59             0.0189082019                                                  
   60            -0.0472488054                                                  
   61            -0.0405794721                                                  
   62             0.0548770859                                                  
   63             0.0395299078                                                  
   64             0.0363856303                                                  
   65             0.0379536637                                                  
   66             0.0462597279                                                  
 Sym= A                                                                         
 Ene=       -28.3664057767                                                      
 Spin = Alpha                                                                   
 Occup =   2.0                                                                  
    1             0.0690415155                                                  
    2             0.0387909484                                                  
    3             0.0026267081                                                  
    4            -0.0708601554                                                  
    5            -0.2449215388                                                  
    6             0.0686010373                                                  
    7             0.0027252410                                                  
    8            -0.0522926612                                                  
    9            -0.2692977254                                                  
   10             0.0510371526                                                  
   11             0.0431598089                                                  
   12             0.0053436793                                                  
   13            -0.2830264601                                                  
   14            -0.0062674109                                                  
   15             0.0428215575                                                  
   16             0.0478193298                                                  
   17            -0.2842123762                                                  
   18            -0.0521077523                                                  
   19            -0.0026084480                                                  
   20             0.0382432476                                                  
   21            -0.2827470268                                                  
   22            -0.0443614743                                                  
   23            -0.0457119494                                                  
   24            -0.0097040454                                                  
   25            -0.2703458534                                                  
   26             0.0137701152                                                  
   27            -0.0410125984                                                  
   28            -0.0496965982                                                  
   29            -0.0491320619                                                  
   30            -0.0535793902                                                  
   31            -0.0538899537                                                  
   32            -0.0533843382                                                  
   33            -0.0513342785                                                  
   34             0.0691999907                                                  
   35             0.0379329247                                                  
   36            -0.0023856219                                                  
   37             0.0712274903                                                  
   38            -0.2449392496                                                  
   39             0.0680784954                                                  
   40            -0.0022417033                                                  
   41             0.0530752791                                                  
   42            -0.2695642788                                                  
   43             0.0513982636                                                  
   44            -0.0428960608                                                  
   45            -0.0046882023                                                  
   46            -0.2832965750                                                  
   47            -0.0054990284                                                  
   48            -0.0427692603                                                  
   49            -0.0479603249                                                  
   50            -0.2839760051                                                  
   51            -0.0516839017                                                  
   52             0.0024066492                                                  
   53            -0.0387458737                                                  
   54            -0.2821437641                                                  
   55            -0.0446715006                                                  
   56             0.0453785736                                                  
   57             0.0092327989                                                  
   58            -0.2700335253                                                  
   59             0.0128327664                                                  
   60             0.0410769780                                                  
   61             0.0497759821                                                  
   62            -0.0491649841                                                  
   63            -0.0536296038                                                  
   64            -0.0538582957                                                  
   65            -0.0533009041                                                  
   66            -0.0512976692                                                  
 Sym= A                                                                         
 Ene=       -26.5964146377                                                      
 Spin = Alpha                                                                   
 Occup =   2.0                                                                  
    1            -0.3143322879                                                  
    2             0.0668696939                                                  
    3             0.0034299849                                                  
    4            -0.1462919256                                                  
    5            -0.2750703955                                                  
    6            -0.1155935568                                                  
    7            -0.0138025212                                                  
    8             0.0452208617                                                  
    9            -0.0376239444                                                  
   10            -0.0798051613                                                  
   11             0.0187048709                                                  
   12             0.0755603213                                                  
   13             0.2323352018                                                  
   14            -0.0467181516                                                  
   15            -0.0416360798                                                  
   16            -0.0058806104                                                  
   17             0.3358679459                                                  
   18             0.0258279532                                                  
   19            -0.0028454490                                                  
   20            -0.0229947201                                                  
   21             0.2650602037                                                  
   22            -0.0055297242                                                  
   23             0.0381917826                                                  
   24             0.0401607838                                                  
   25             0.0243441821                                                  
   26            -0.0917023067                                                  
   27            -0.0215857115                                                  
   28             0.0415803966                                                  
   29            -0.0211971109                                                  
   30             0.0551914686                                                  
   31             0.0813402141                                                  
   32             0.0634483834                                                  
   33             0.0004314764                                                  
   34             0.3145636191                                                  
   35            -0.0649594191                                                  
   36             0.0030610765                                                  
   37            -0.1465490944                                                  
   38             0.2745199501                                                  
   39             0.1149584285                                                  
   40            -0.0129171403                                                  
   41             0.0466655295                                                  
   42             0.0367113561                                                  
   43             0.0788561908                                                  
   44             0.0191463855                                                  
   45             0.0764268493                                                  
   46            -0.2328665915                                                  
   47             0.0469505685                                                  
   48            -0.0412350185                                                  
   49            -0.0054286101                                                  
   50            -0.3356432687                                                  
   51            -0.0255993764                                                  
   52            -0.0027874269                                                  
   53            -0.0231610922                                                  
   54            -0.2643025528                                                  
   55             0.0048815103                                                  
   56             0.0381928390                                                  
   57             0.0402380254                                                  
   58            -0.0237654735                                                  
   59             0.0912037139                                                  
   60            -0.0209956233                                                  
   61             0.0424784876                                                  
   62             0.0209568046                                                  
   63            -0.0553312307                                                  